nqpoint: 151    
natom:   5      
reciprocal_lattice:
- [   0.25173007,   0.00000000,   0.00000000 ] # a*
- [   0.00000000,   0.25173007,   0.00000000 ] # b*
- [   0.00000000,   0.00000000,   0.25173007 ] # c*
phonon:
- q-position: [    0.0000000,    0.0000000,    0.0000000 ]
  band:
  - # 1
    frequency:   -4.4685306973
  - # 2
    frequency:   -4.4685306973
  - # 3
    frequency:   -4.4685306973
  - # 4
    frequency:    0.0030749866
  - # 5
    frequency:    0.0030749866
  - # 6
    frequency:    0.0030749866
  - # 7
    frequency:    5.0799607597
  - # 8
    frequency:    5.0799607597
  - # 9
    frequency:    5.0799607597
  - # 10
    frequency:    9.2530985271
  - # 11
    frequency:    9.2530985271
  - # 12
    frequency:    9.2530985271
  - # 13
    frequency:   13.8510947370
  - # 14
    frequency:   13.8510947370
  - # 15
    frequency:   13.8510947370

- q-position: [    0.0000000,    0.0166667,    0.0000000 ]
  band:
  - # 1
    frequency:   -4.4652355448
  - # 2
    frequency:   -4.4652355448
  - # 3
    frequency:    0.1931360429
  - # 4
    frequency:    0.1931360429
  - # 5
    frequency:    0.3019001489
  - # 6
    frequency:    4.9331537532
  - # 7
    frequency:    5.0815344631
  - # 8
    frequency:    5.0815344631
  - # 9
    frequency:    9.2546203429
  - # 10
    frequency:    9.2546203429
  - # 11
    frequency:    9.2546638280
  - # 12
    frequency:   12.6399771921
  - # 13
    frequency:   13.8497996785
  - # 14
    frequency:   13.8497996785
  - # 15
    frequency:   17.8849873219

- q-position: [    0.0000000,    0.0333333,    0.0000000 ]
  band:
  - # 1
    frequency:   -4.4554374177
  - # 2
    frequency:   -4.4554374177
  - # 3
    frequency:    0.3857478190
  - # 4
    frequency:    0.3857478190
  - # 5
    frequency:    0.5985342800
  - # 6
    frequency:    4.9749931806
  - # 7
    frequency:    5.0862779067
  - # 8
    frequency:    5.0862779067
  - # 9
    frequency:    9.2591832987
  - # 10
    frequency:    9.2591832987
  - # 11
    frequency:    9.2593384679
  - # 12
    frequency:   12.6488732495
  - # 13
    frequency:   13.8459188591
  - # 14
    frequency:   13.8459188591
  - # 15
    frequency:   17.6191911230

- q-position: [    0.0000000,    0.0500000,    0.0000000 ]
  band:
  - # 1
    frequency:   -4.4393939280
  - # 2
    frequency:   -4.4393939280
  - # 3
    frequency:    0.5773610448
  - # 4
    frequency:    0.5773610448
  - # 5
    frequency:    0.8856090533
  - # 6
    frequency:    5.0409291811
  - # 7
    frequency:    5.0942572062
  - # 8
    frequency:    5.0942572062
  - # 9
    frequency:    9.2667798445
  - # 10
    frequency:    9.2667798445
  - # 11
    frequency:    9.2670590541
  - # 12
    frequency:   12.6559369407
  - # 13
    frequency:   13.8394654831
  - # 14
    frequency:   13.8394654831
  - # 15
    frequency:   17.2036874149

- q-position: [    0.0000000,    0.0666667,    0.0000000 ]
  band:
  - # 1
    frequency:   -4.4175199864
  - # 2
    frequency:   -4.4175199864
  - # 3
    frequency:    0.7673899907
  - # 4
    frequency:    0.7673899907
  - # 5
    frequency:    1.1604476690
  - # 6
    frequency:    5.1055794844
  - # 7
    frequency:    5.1055794844
  - # 8
    frequency:    5.1261127304
  - # 9
    frequency:    9.2773971223
  - # 10
    frequency:    9.2773971223
  - # 11
    frequency:    9.2777212388
  - # 12
    frequency:   12.6494912427
  - # 13
    frequency:   13.8304620088
  - # 14
    frequency:   13.8304620088
  - # 15
    frequency:   16.6806094334

- q-position: [    0.0000000,    0.0833333,    0.0000000 ]
  band:
  - # 1
    frequency:   -4.3903667598
  - # 2
    frequency:   -4.3903667598
  - # 3
    frequency:    0.9551699759
  - # 4
    frequency:    0.9551699759
  - # 5
    frequency:    1.4221074714
  - # 6
    frequency:    5.1203878577
  - # 7
    frequency:    5.1203878577
  - # 8
    frequency:    5.2252439291
  - # 9
    frequency:    9.2910164646
  - # 10
    frequency:    9.2910164646
  - # 11
    frequency:    9.2911816455
  - # 12
    frequency:   12.6138711945
  - # 13
    frequency:   13.8189408263
  - # 14
    frequency:   13.8189408263
  - # 15
    frequency:   16.1096278159

- q-position: [    0.0000000,    0.1000000,    0.0000000 ]
  band:
  - # 1
    frequency:   -4.3585936471
  - # 2
    frequency:   -4.3585936471
  - # 3
    frequency:    1.1399383396
  - # 4
    frequency:    1.1399383396
  - # 5
    frequency:    1.6710442183
  - # 6
    frequency:    5.1388536322
  - # 7
    frequency:    5.1388536322
  - # 8
    frequency:    5.3336271719
  - # 9
    frequency:    9.3072604996
  - # 10
    frequency:    9.3076125268
  - # 11
    frequency:    9.3076125268
  - # 12
    frequency:   12.5336907257
  - # 13
    frequency:   13.8049452035
  - # 14
    frequency:   13.8049452035
  - # 15
    frequency:   15.5639733190

- q-position: [    0.0000000,    0.1166667,    0.0000000 ]
  band:
  - # 1
    frequency:   -4.3229350523
  - # 2
    frequency:   -4.3229350523
  - # 3
    frequency:    1.3208301491
  - # 4
    frequency:    1.3208301491
  - # 5
    frequency:    1.9085162113
  - # 6
    frequency:    5.1611650178
  - # 7
    frequency:    5.1611650178
  - # 8
    frequency:    5.4480259265
  - # 9
    frequency:    9.3257448987
  - # 10
    frequency:    9.3271519041
  - # 11
    frequency:    9.3271519041
  - # 12
    frequency:   12.4078143821
  - # 13
    frequency:   13.7885305029
  - # 14
    frequency:   13.7885305029
  - # 15
    frequency:   15.1147883604

- q-position: [    0.0000000,    0.1333333,    0.0000000 ]
  band:
  - # 1
    frequency:   -4.2841644664
  - # 2
    frequency:   -4.2841644664
  - # 3
    frequency:    1.4968878674
  - # 4
    frequency:    1.4968878674
  - # 5
    frequency:    2.1359415365
  - # 6
    frequency:    5.1875116525
  - # 7
    frequency:    5.1875116525
  - # 8
    frequency:    5.5671279953
  - # 9
    frequency:    9.3463926390
  - # 10
    frequency:    9.3495910746
  - # 11
    frequency:    9.3495910746
  - # 12
    frequency:   12.2716755263
  - # 13
    frequency:   13.7697656681
  - # 14
    frequency:   13.7697656681
  - # 15
    frequency:   14.8031515392

- q-position: [    0.0000000,    0.1500000,    0.0000000 ]
  band:
  - # 1
    frequency:   -4.2430589208
  - # 2
    frequency:   -4.2430589208
  - # 3
    frequency:    1.6670858221
  - # 4
    frequency:    1.6670858221
  - # 5
    frequency:    2.3543768285
  - # 6
    frequency:    5.2180644214
  - # 7
    frequency:    5.2180644214
  - # 8
    frequency:    5.6915247002
  - # 9
    frequency:    9.3689365039
  - # 10
    frequency:    9.3748735131
  - # 11
    frequency:    9.3748735131
  - # 12
    frequency:   12.1990885116
  - # 13
    frequency:   13.7487349829
  - # 14
    frequency:   13.7487349829
  - # 15
    frequency:   14.6269893391

- q-position: [    0.0000000,    0.1666667,    0.0000000 ]
  band:
  - # 1
    frequency:   -4.2003670054
  - # 2
    frequency:   -4.2003670054
  - # 3
    frequency:    1.8303689125
  - # 4
    frequency:    1.8303689125
  - # 5
    frequency:    2.5642444028
  - # 6
    frequency:    5.2529505452
  - # 7
    frequency:    5.2529505452
  - # 8
    frequency:    5.8232369606
  - # 9
    frequency:    9.3930889048
  - # 10
    frequency:    9.4029258535
  - # 11
    frequency:    9.4029258535
  - # 12
    frequency:   12.2635037528
  - # 13
    frequency:   13.7255401016
  - # 14
    frequency:   13.7255401016
  - # 15
    frequency:   14.5641759416

- q-position: [    0.0000000,    0.1833333,    0.0000000 ]
  band:
  - # 1
    frequency:   -4.1567832176
  - # 2
    frequency:   -4.1567832176
  - # 3
    frequency:    1.9857029678
  - # 4
    frequency:    1.9857029678
  - # 5
    frequency:    2.7653549582
  - # 6
    frequency:    5.2922247730
  - # 7
    frequency:    5.2922247730
  - # 8
    frequency:    5.9649586753
  - # 9
    frequency:    9.4185467555
  - # 10
    frequency:    9.4336530308
  - # 11
    frequency:    9.4336530308
  - # 12
    frequency:   12.4930310110
  - # 13
    frequency:   13.7003023528
  - # 14
    frequency:   13.7003023528
  - # 15
    frequency:   14.6036841394

- q-position: [    0.0000000,    0.2000000,    0.0000000 ]
  band:
  - # 1
    frequency:   -4.1129304571
  - # 2
    frequency:   -4.1129304571
  - # 3
    frequency:    2.1321320569
  - # 4
    frequency:    2.1321320569
  - # 5
    frequency:    2.9571253817
  - # 6
    frequency:    5.3358387051
  - # 7
    frequency:    5.3358387051
  - # 8
    frequency:    6.1191662640
  - # 9
    frequency:    9.4449964583
  - # 10
    frequency:    9.4669324139
  - # 11
    frequency:    9.4669324139
  - # 12
    frequency:   12.8504224405
  - # 13
    frequency:   13.6731653063
  - # 14
    frequency:   13.6731653063
  - # 15
    frequency:   14.7616981785

- q-position: [    0.0000000,    0.2166667,    0.0000000 ]
  band:
  - # 1
    frequency:   -4.0693512310
  - # 2
    frequency:   -4.0693512310
  - # 3
    frequency:    2.2688362967
  - # 4
    frequency:    2.2688362967
  - # 5
    frequency:    3.1388315528
  - # 6
    frequency:    5.3836115899
  - # 7
    frequency:    5.3836115899
  - # 8
    frequency:    6.2871077064
  - # 9
    frequency:    9.4721188730
  - # 10
    frequency:    9.5026070460
  - # 11
    frequency:    9.5026070460
  - # 12
    frequency:   13.2431651191
  - # 13
    frequency:   13.6442975868
  - # 14
    frequency:   13.6442975868
  - # 15
    frequency:   15.0799209905

- q-position: [    0.0000000,    0.2333333,    0.0000000 ]
  band:
  - # 1
    frequency:   -4.0265068936
  - # 2
    frequency:   -4.0265068936
  - # 3
    frequency:    2.3951828100
  - # 4
    frequency:    2.3951828100
  - # 5
    frequency:    3.3098345824
  - # 6
    frequency:    5.4352069816
  - # 7
    frequency:    5.4352069816
  - # 8
    frequency:    6.4678213848
  - # 9
    frequency:    9.4995941481
  - # 10
    frequency:    9.5404782282
  - # 11
    frequency:    9.5404782282
  - # 12
    frequency:   13.5818753913
  - # 13
    frequency:   13.6138958928
  - # 14
    frequency:   13.6138958928
  - # 15
    frequency:   15.5819036811

- q-position: [    0.0000000,    0.2500000,    0.0000000 ]
  band:
  - # 1
    frequency:   -3.9847833081
  - # 2
    frequency:   -3.9847833081
  - # 3
    frequency:    2.5107628416
  - # 4
    frequency:    2.5107628416
  - # 5
    frequency:    3.4697684150
  - # 6
    frequency:    5.4901198845
  - # 7
    frequency:    5.4901198845
  - # 8
    frequency:    6.6576329891
  - # 9
    frequency:    9.5271062962
  - # 10
    frequency:    9.5802978186
  - # 11
    frequency:    9.5802978186
  - # 12
    frequency:   13.5821881497
  - # 13
    frequency:   13.5821881497
  - # 14
    frequency:   13.8494376432
  - # 15
    frequency:   16.2169923497

- q-position: [    0.0000000,    0.2666667,    0.0000000 ]
  band:
  - # 1
    frequency:   -3.9445008222
  - # 2
    frequency:   -3.9445008222
  - # 3
    frequency:    2.6154098445
  - # 4
    frequency:    2.6154098445
  - # 5
    frequency:    3.6186266177
  - # 6
    frequency:    5.5476780397
  - # 7
    frequency:    5.5476780397
  - # 8
    frequency:    6.8505112888
  - # 9
    frequency:    9.5543474093
  - # 10
    frequency:    9.6217607488
  - # 11
    frequency:    9.6217607488
  - # 12
    frequency:   13.5494366746
  - # 13
    frequency:   13.5494366746
  - # 14
    frequency:   14.0761363872
  - # 15
    frequency:   16.8930058838

- q-position: [    0.0000000,    0.2833333,    0.0000000 ]
  band:
  - # 1
    frequency:   -3.9059264092
  - # 2
    frequency:   -3.9059264092
  - # 3
    frequency:    2.7091963790
  - # 4
    frequency:    2.7091963790
  - # 5
    frequency:    3.7567001252
  - # 6
    frequency:    5.6070588120
  - # 7
    frequency:    5.6070588120
  - # 8
    frequency:    7.0392224803
  - # 9
    frequency:    9.5810214260
  - # 10
    frequency:    9.6644983863
  - # 11
    frequency:    9.6644983863
  - # 12
    frequency:   13.5159411670
  - # 13
    frequency:   13.5159411670
  - # 14
    frequency:   14.2871614891
  - # 15
    frequency:   17.5319746300

- q-position: [    0.0000000,    0.3000000,    0.0000000 ]
  band:
  - # 1
    frequency:   -3.8692861111
  - # 2
    frequency:   -3.8692861111
  - # 3
    frequency:    2.7924112305
  - # 4
    frequency:    2.7924112305
  - # 5
    frequency:    3.8844085418
  - # 6
    frequency:    5.6673202404
  - # 7
    frequency:    5.6673202404
  - # 8
    frequency:    7.2168082704
  - # 9
    frequency:    9.6068473797
  - # 10
    frequency:    9.7080734722
  - # 11
    frequency:    9.7080734722
  - # 12
    frequency:   13.4820412482
  - # 13
    frequency:   13.4820412482
  - # 14
    frequency:   14.4914682773
  - # 15
    frequency:   18.0821311081

- q-position: [    0.0000000,    0.3166667,    0.0000000 ]
  band:
  - # 1
    frequency:   -3.8347763843
  - # 2
    frequency:   -3.8347763843
  - # 3
    frequency:    2.8655212865
  - # 4
    frequency:    2.8655212865
  - # 5
    frequency:    4.0021203145
  - # 6
    frequency:    5.7274421367
  - # 7
    frequency:    5.7274421367
  - # 8
    frequency:    7.3778099093
  - # 9
    frequency:    9.6315620838
  - # 10
    frequency:    9.7519774298
  - # 11
    frequency:    9.7519774298
  - # 12
    frequency:   13.4481181671
  - # 13
    frequency:   13.4481181671
  - # 14
    frequency:   14.6868164515
  - # 15
    frequency:   18.5130687313

- q-position: [    0.0000000,    0.3333333,    0.0000000 ]
  band:
  - # 1
    frequency:   -3.8025734510
  - # 2
    frequency:   -3.8025734510
  - # 3
    frequency:    2.9291245508
  - # 4
    frequency:    2.9291245508
  - # 5
    frequency:    4.1100335692
  - # 6
    frequency:    5.7863715262
  - # 7
    frequency:    5.7863715262
  - # 8
    frequency:    7.5188771081
  - # 9
    frequency:    9.6549222298
  - # 10
    frequency:    9.7956308708
  - # 11
    frequency:    9.7956308708
  - # 12
    frequency:   13.4145951660
  - # 13
    frequency:   13.4145951660
  - # 14
    frequency:   14.8650287558
  - # 15
    frequency:   18.8108601285

- q-position: [    0.0000000,    0.3500000,    0.0000000 ]
  band:
  - # 1
    frequency:   -3.7728402043
  - # 2
    frequency:   -3.7728402043
  - # 3
    frequency:    2.9839008650
  - # 4
    frequency:    2.9839008650
  - # 5
    frequency:    4.2081379069
  - # 6
    frequency:    5.8430666415
  - # 7
    frequency:    5.8430666415
  - # 8
    frequency:    7.6387408853
  - # 9
    frequency:    9.6767059033
  - # 10
    frequency:    9.8383881031
  - # 11
    frequency:    9.8383881031
  - # 12
    frequency:   13.3819358792
  - # 13
    frequency:   13.3819358792
  - # 14
    frequency:   15.0159062090
  - # 15
    frequency:   18.9747975377

- q-position: [    0.0000000,    0.3666667,    0.0000000 ]
  band:
  - # 1
    frequency:   -3.7457305745
  - # 2
    frequency:   -3.7457305745
  - # 3
    frequency:    3.0305657176
  - # 4
    frequency:    3.0305657176
  - # 5
    frequency:    4.2962432233
  - # 6
    frequency:    5.8965348997
  - # 7
    frequency:    5.8965348997
  - # 8
    frequency:    7.7377731033
  - # 9
    frequency:    9.6967135458
  - # 10
    frequency:    9.8795463653
  - # 11
    frequency:    9.8795463653
  - # 12
    frequency:   13.3506400378
  - # 13
    frequency:   13.3506400378
  - # 14
    frequency:   15.1302620819
  - # 15
    frequency:   19.0149902996

- q-position: [    0.0000000,    0.3833333,    0.0000000 ]
  band:
  - # 1
    frequency:   -3.7213915168
  - # 2
    frequency:   -3.7213915168
  - # 3
    frequency:    3.0698305820
  - # 4
    frequency:    3.0698305820
  - # 5
    frequency:    4.3740520826
  - # 6
    frequency:    5.9458622223
  - # 7
    frequency:    5.9458622223
  - # 8
    frequency:    7.8174134496
  - # 9
    frequency:    9.7147684154
  - # 10
    frequency:    9.9183603504
  - # 11
    frequency:    9.9183603504
  - # 12
    frequency:   13.3212357308
  - # 13
    frequency:   13.3212357308
  - # 14
    frequency:   15.2022500599
  - # 15
    frequency:   18.9502271691

- q-position: [    0.0000000,    0.4000000,    0.0000000 ]
  band:
  - # 1
    frequency:   -3.6999629486
  - # 2
    frequency:   -3.6999629486
  - # 3
    frequency:    3.1023712513
  - # 4
    frequency:    3.1023712513
  - # 5
    frequency:    4.4412547022
  - # 6
    frequency:    5.9902330111
  - # 7
    frequency:    5.9902330111
  - # 8
    frequency:    7.8796680070
  - # 9
    frequency:    9.7307166165
  - # 10
    frequency:    9.9540623139
  - # 11
    frequency:    9.9540623139
  - # 12
    frequency:   13.2942675638
  - # 13
    frequency:   13.2942675638
  - # 14
    frequency:   15.2309436529
  - # 15
    frequency:   18.8057817422

- q-position: [    0.0000000,    0.4166667,    0.0000000 ]
  band:
  - # 1
    frequency:   -3.6815760715
  - # 2
    frequency:   -3.6815760715
  - # 3
    frequency:    3.1288040868
  - # 4
    frequency:    3.1288040868
  - # 5
    frequency:    4.4976280435
  - # 6
    frequency:    6.0289416098
  - # 7
    frequency:    6.0289416098
  - # 8
    frequency:    7.9267684051
  - # 9
    frequency:    9.7444267879
  - # 10
    frequency:    9.9858876394
  - # 11
    frequency:    9.9858876394
  - # 12
    frequency:   13.2702803421
  - # 13
    frequency:   13.2702803421
  - # 14
    frequency:   15.2210447686
  - # 15
    frequency:   18.6110278988

- q-position: [    0.0000000,    0.4333333,    0.0000000 ]
  band:
  - # 1
    frequency:   -3.6663505587
  - # 2
    frequency:   -3.6663505587
  - # 3
    frequency:    3.1496691537
  - # 4
    frequency:    3.1496691537
  - # 5
    frequency:    4.5431180748
  - # 6
    frequency:    6.0613969828
  - # 7
    frequency:    6.0613969828
  - # 8
    frequency:    7.9609868700
  - # 9
    frequency:    9.7557895470
  - # 10
    frequency:   10.0131051356
  - # 11
    frequency:   10.0131051356
  - # 12
    frequency:   13.2497984178
  - # 13
    frequency:   13.2497984178
  - # 14
    frequency:   15.1825716315
  - # 15
    frequency:   18.3968880787

- q-position: [    0.0000000,    0.4500000,    0.0000000 ]
  band:
  - # 1
    frequency:   -3.6543911072
  - # 2
    frequency:   -3.6543911072
  - # 3
    frequency:    3.1654188222
  - # 4
    frequency:    3.1654188222
  - # 5
    frequency:    4.5778794323
  - # 6
    frequency:    6.0871226722
  - # 7
    frequency:    6.0871226722
  - # 8
    frequency:    7.9845435536
  - # 9
    frequency:    9.7647167928
  - # 10
    frequency:   10.0350505650
  - # 11
    frequency:   10.0350505650
  - # 12
    frequency:   13.2333015818
  - # 13
    frequency:   13.2333015818
  - # 14
    frequency:   15.1294288949
  - # 15
    frequency:   18.1932558051

- q-position: [    0.0000000,    0.4666667,    0.0000000 ]
  band:
  - # 1
    frequency:   -3.6457838381
  - # 2
    frequency:   -3.6457838381
  - # 3
    frequency:    3.1764104100
  - # 4
    frequency:    3.1764104100
  - # 5
    frequency:    4.6022477877
  - # 6
    frequency:    6.1057540185
  - # 7
    frequency:    6.1057540185
  - # 8
    frequency:    7.9995161389
  - # 9
    frequency:    9.7711409702
  - # 10
    frequency:   10.0511610556
  - # 11
    frequency:   10.0511610556
  - # 12
    frequency:   13.2211992618
  - # 13
    frequency:   13.2211992618
  - # 14
    frequency:   15.0769775634
  - # 15
    frequency:   18.0265645285

- q-position: [    0.0000000,    0.4833333,    0.0000000 ]
  band:
  - # 1
    frequency:   -3.6405929815
  - # 2
    frequency:   -3.6405929815
  - # 3
    frequency:    3.1829016513
  - # 4
    frequency:    3.1829016513
  - # 5
    frequency:    4.6166372404
  - # 6
    frequency:    6.1170343263
  - # 7
    frequency:    6.1170343263
  - # 8
    frequency:    8.0076768710
  - # 9
    frequency:    9.7750143870
  - # 10
    frequency:   10.0610072881
  - # 11
    frequency:   10.0610072881
  - # 12
    frequency:   13.2138056052
  - # 13
    frequency:   13.2138056052
  - # 14
    frequency:   15.0390728710
  - # 15
    frequency:   17.9176174660

- q-position: [    0.0000000,    0.5000000,    0.0000000 ]
  band:
  - # 1
    frequency:   -3.6388582209
  - # 2
    frequency:   -3.6388582209
  - # 3
    frequency:    3.1850480723
  - # 4
    frequency:    3.1850480723
  - # 5
    frequency:    4.6213895737
  - # 6
    frequency:    6.1208112568
  - # 7
    frequency:    6.1208112568
  - # 8
    frequency:    8.0102500607
  - # 9
    frequency:    9.7763086654
  - # 10
    frequency:   10.0643199663
  - # 11
    frequency:   10.0643199663
  - # 12
    frequency:   13.2113185142
  - # 13
    frequency:   13.2113185142
  - # 14
    frequency:   15.0252992655
  - # 15
    frequency:   17.8797653180

- q-position: [    0.0166667,    0.5000000,    0.0000000 ]
  band:
  - # 1
    frequency:   -3.6363004397
  - # 2
    frequency:   -3.5806940372
  - # 3
    frequency:    3.1842266979
  - # 4
    frequency:    3.1850933346
  - # 5
    frequency:    4.6271867992
  - # 6
    frequency:    6.1282547485
  - # 7
    frequency:    6.1299463358
  - # 8
    frequency:    8.0067804899
  - # 9
    frequency:    9.7213383531
  - # 10
    frequency:   10.0647859793
  - # 11
    frequency:   10.1185559459
  - # 12
    frequency:   13.2028799528
  - # 13
    frequency:   13.2087472210
  - # 14
    frequency:   15.0316197109
  - # 15
    frequency:   17.9138796158

- q-position: [    0.0333333,    0.5000000,    0.0000000 ]
  band:
  - # 1
    frequency:   -3.6286866744
  - # 2
    frequency:   -3.4005469726
  - # 3
    frequency:    3.1819052344
  - # 4
    frequency:    3.1852282653
  - # 5
    frequency:    4.6453968367
  - # 6
    frequency:    6.1507720469
  - # 7
    frequency:    6.1572535084
  - # 8
    frequency:    7.9957052718
  - # 9
    frequency:    9.6111589185
  - # 10
    frequency:   10.0661788123
  - # 11
    frequency:   10.2273153475
  - # 12
    frequency:   13.1787926144
  - # 13
    frequency:   13.2010304858
  - # 14
    frequency:   15.0495192985
  - # 15
    frequency:   18.0130766797

- q-position: [    0.0500000,    0.5000000,    0.0000000 ]
  band:
  - # 1
    frequency:   -3.6161927346
  - # 2
    frequency:   -3.0795805189
  - # 3
    frequency:    3.1784653414
  - # 4
    frequency:    3.1854503469
  - # 5
    frequency:    4.6789691021
  - # 6
    frequency:    6.1887727870
  - # 7
    frequency:    6.2024407248
  - # 8
    frequency:    7.9751421738
  - # 9
    frequency:    9.4890534458
  - # 10
    frequency:   10.0684829057
  - # 11
    frequency:   10.3495265669
  - # 12
    frequency:   13.1422203651
  - # 13
    frequency:   13.1881599279
  - # 14
    frequency:   15.0760308332
  - # 15
    frequency:   18.1686853098

- q-position: [    0.0666667,    0.5000000,    0.0000000 ]
  band:
  - # 1
    frequency:   -3.5991021232
  - # 2
    frequency:   -2.5763578664
  - # 3
    frequency:    3.1744132031
  - # 4
    frequency:    3.1857555463
  - # 5
    frequency:    4.7345016196
  - # 6
    frequency:    6.2425281938
  - # 7
    frequency:    6.2650283687
  - # 8
    frequency:    7.9423419354
  - # 9
    frequency:    9.3681081148
  - # 10
    frequency:   10.0716725200
  - # 11
    frequency:   10.4753368231
  - # 12
    frequency:   13.0970765127
  - # 13
    frequency:   13.1701221817
  - # 14
    frequency:   15.1068223843
  - # 15
    frequency:   18.3684186669

- q-position: [    0.0833333,    0.5000000,    0.0000000 ]
  band:
  - # 1
    frequency:   -3.5777925859
  - # 2
    frequency:   -1.7793933970
  - # 3
    frequency:    3.1702510241
  - # 4
    frequency:    3.1861385387
  - # 5
    frequency:    4.8248603616
  - # 6
    frequency:    6.3118049810
  - # 7
    frequency:    6.3443599030
  - # 8
    frequency:    7.8942612607
  - # 9
    frequency:    9.2544837854
  - # 10
    frequency:   10.0757120261
  - # 11
    frequency:   10.6021813068
  - # 12
    frequency:   13.0469012614
  - # 13
    frequency:   13.1468997521
  - # 14
    frequency:   15.1368448024
  - # 15
    frequency:   18.5985976111

- q-position: [    0.1000000,    0.5000000,    0.0000000 ]
  band:
  - # 1
    frequency:   -3.5527188367
  - # 2
    frequency:    0.8035701519
  - # 3
    frequency:    3.1663810131
  - # 4
    frequency:    3.1865929835
  - # 5
    frequency:    4.9723714034
  - # 6
    frequency:    6.3956695965
  - # 7
    frequency:    6.4396165908
  - # 8
    frequency:    7.8283176583
  - # 9
    frequency:    9.1521203343
  - # 10
    frequency:   10.0805563107
  - # 11
    frequency:   10.7292273435
  - # 12
    frequency:   12.9942440607
  - # 13
    frequency:   13.1184721182
  - # 14
    frequency:   15.1609450049
  - # 15
    frequency:   18.8460117078

- q-position: [    0.1166667,    0.5000000,    0.0000000 ]
  band:
  - # 1
    frequency:   -3.5243928334
  - # 2
    frequency:    2.0821574695
  - # 3
    frequency:    3.1630604402
  - # 4
    frequency:    3.1871118197
  - # 5
    frequency:    5.2081901637
  - # 6
    frequency:    6.4925100956
  - # 7
    frequency:    6.5498359709
  - # 8
    frequency:    7.7431521819
  - # 9
    frequency:    9.0632320369
  - # 10
    frequency:   10.0861512957
  - # 11
    frequency:   10.8560319996
  - # 12
    frequency:   12.9405538861
  - # 13
    frequency:   13.0848170134
  - # 14
    frequency:   15.1743990910
  - # 15
    frequency:   19.0991525062

- q-position: [    0.1333333,    0.5000000,    0.0000000 ]
  band:
  - # 1
    frequency:   -3.4933631114
  - # 2
    frequency:    2.7160546124
  - # 3
    frequency:    3.1604095905
  - # 4
    frequency:    3.1876875519
  - # 5
    frequency:    5.5562132454
  - # 6
    frequency:    6.6002100087
  - # 7
    frequency:    6.6739335342
  - # 8
    frequency:    7.6390681438
  - # 9
    frequency:    8.9882304956
  - # 10
    frequency:   10.0924345669
  - # 11
    frequency:   10.9821286567
  - # 12
    frequency:   12.8863772827
  - # 13
    frequency:   13.0459118050
  - # 14
    frequency:   15.1733518192
  - # 15
    frequency:   19.3488529793

- q-position: [    0.1500000,    0.5000000,    0.0000000 ]
  band:
  - # 1
    frequency:   -3.4601946501
  - # 2
    frequency:    3.0812527346
  - # 3
    frequency:    3.1586978287
  - # 4
    frequency:    3.1883124964
  - # 5
    frequency:    6.0050658081
  - # 6
    frequency:    6.7163834202
  - # 7
    frequency:    6.8107267859
  - # 8
    frequency:    7.5178902452
  - # 9
    frequency:    8.9259797731
  - # 10
    frequency:   10.0993361060
  - # 11
    frequency:   11.1069058023
  - # 12
    frequency:   12.8316821976
  - # 13
    frequency:   13.0017349146
  - # 14
    frequency:   15.1551470061
  - # 15
    frequency:   19.5884747800

- q-position: [    0.1666667,    0.5000000,    0.0000000 ]
  band:
  - # 1
    frequency:   -3.4254505487
  - # 2
    frequency:    3.1563444774
  - # 3
    frequency:    3.1889789695
  - # 4
    frequency:    3.2863702916
  - # 5
    frequency:    6.5101489566
  - # 6
    frequency:    6.8387002341
  - # 7
    frequency:    6.9589606523
  - # 8
    frequency:    7.3823627663
  - # 9
    frequency:    8.8744414028
  - # 10
    frequency:   10.1067791169
  - # 11
    frequency:   11.2296097246
  - # 12
    frequency:   12.7762133984
  - # 13
    frequency:   12.9522672449
  - # 14
    frequency:   15.1185303006
  - # 15
    frequency:   19.8137843425

- q-position: [    0.1833333,    0.5000000,    0.0000000 ]
  band:
  - # 1
    frequency:   -3.3896764659
  - # 2
    frequency:    3.1551345190
  - # 3
    frequency:    3.1896794060
  - # 4
    frequency:    3.3966168670
  - # 5
    frequency:    6.9606811112
  - # 6
    frequency:    7.0298947552
  - # 7
    frequency:    7.1173330365
  - # 8
    frequency:    7.2355902040
  - # 9
    frequency:    8.8313751981
  - # 10
    frequency:   10.1146809323
  - # 11
    frequency:   11.3494100607
  - # 12
    frequency:   12.7198490440
  - # 13
    frequency:   12.8974936199
  - # 14
    frequency:   15.0637087702
  - # 15
    frequency:   20.0226302764

- q-position: [    0.2000000,    0.5000000,    0.0000000 ]
  band:
  - # 1
    frequency:   -3.3533883837
  - # 2
    frequency:    3.1539076418
  - # 3
    frequency:    3.1904064088
  - # 4
    frequency:    3.4527477403
  - # 5
    frequency:    7.0759846926
  - # 6
    frequency:    7.0935841723
  - # 7
    frequency:    7.2845192876
  - # 8
    frequency:    7.5249376376
  - # 9
    frequency:    8.7948135873
  - # 10
    frequency:   10.1229539876
  - # 11
    frequency:   11.4654998554
  - # 12
    frequency:   12.6629447403
  - # 13
    frequency:   12.8374042967
  - # 14
    frequency:   14.9922596529
  - # 15
    frequency:   20.2145112724

- q-position: [    0.2166667,    0.5000000,    0.0000000 ]
  band:
  - # 1
    frequency:   -3.3170638611
  - # 2
    frequency:    3.1525779662
  - # 3
    frequency:    3.1911527387
  - # 4
    frequency:    3.4768212840
  - # 5
    frequency:    6.9171358465
  - # 6
    frequency:    7.2167972733
  - # 7
    frequency:    7.4591944191
  - # 8
    frequency:    7.9858889666
  - # 9
    frequency:    8.7632692216
  - # 10
    frequency:   10.1315068431
  - # 11
    frequency:   11.5772138031
  - # 12
    frequency:   12.6066313483
  - # 13
    frequency:   12.7719966698
  - # 14
    frequency:   14.9068941252
  - # 15
    frequency:   20.3901088586

- q-position: [    0.2333333,    0.5000000,    0.0000000 ]
  band:
  - # 1
    frequency:   -3.2811366067
  - # 2
    frequency:    3.1510797826
  - # 3
    frequency:    3.1919112623
  - # 4
    frequency:    3.4812682511
  - # 5
    frequency:    6.7505354450
  - # 6
    frequency:    7.3410149089
  - # 7
    frequency:    7.6400520739
  - # 8
    frequency:    8.4022861729
  - # 9
    frequency:    8.7358683728
  - # 10
    frequency:   10.1402452388
  - # 11
    frequency:   11.6841505881
  - # 12
    frequency:   12.5529984046
  - # 13
    frequency:   12.7012773638
  - # 14
    frequency:   14.8111013971
  - # 15
    frequency:   20.5508458536

- q-position: [    0.2500000,    0.5000000,    0.0000000 ]
  band:
  - # 1
    frequency:   -3.2459939577
  - # 2