nqpoint: 151    
natom:   5      
reciprocal_lattice:
- [   0.25173007,   0.00000000,   0.00000000 ] # a*
- [   0.00000000,   0.25173007,   0.00000000 ] # b*
- [   0.00000000,   0.00000000,   0.25173007 ] # c*
phonon:
- q-position: [    0.0000000,    0.0000000,    0.0000000 ]
  band:
  - # 1
    frequency:   -4.4683609168
  - # 2
    frequency:   -4.4683609168
  - # 3
    frequency:   -4.4683609168
  - # 4
    frequency:    0.0030423728
  - # 5
    frequency:    0.0030423728
  - # 6
    frequency:    0.0030423728
  - # 7
    frequency:    5.0799610686
  - # 8
    frequency:    5.0799610686
  - # 9
    frequency:    5.0799610686
  - # 10
    frequency:    9.2531363098
  - # 11
    frequency:    9.2531363098
  - # 12
    frequency:    9.2531363098
  - # 13
    frequency:   13.8511203910
  - # 14
    frequency:   13.8511203910
  - # 15
    frequency:   13.8511203910

- q-position: [    0.0000000,    0.0166667,    0.0000000 ]
  band:
  - # 1
    frequency:   -4.4651543838
  - # 2
    frequency:   -4.4651543838
  - # 3
    frequency:    0.1903289614
  - # 4
    frequency:    0.1903289614
  - # 5
    frequency:    0.3100328528
  - # 6
    frequency:    4.9296258489
  - # 7
    frequency:    5.0814777344
  - # 8
    frequency:    5.0814777344
  - # 9
    frequency:    9.2545854539
  - # 10
    frequency:    9.2545854539
  - # 11
    frequency:    9.2546081882
  - # 12
    frequency:   12.6424946567
  - # 13
    frequency:   13.8499112498
  - # 14
    frequency:   13.8499112498
  - # 15
    frequency:   17.9783193125

- q-position: [    0.0000000,    0.0333333,    0.0000000 ]
  band:
  - # 1
    frequency:   -4.4556131978
  - # 2
    frequency:   -4.4556131978
  - # 3
    frequency:    0.3801889022
  - # 4
    frequency:    0.3801889022
  - # 5
    frequency:    0.6174010130
  - # 6
    frequency:    4.9619591492
  - # 7
    frequency:    5.0860505401
  - # 8
    frequency:    5.0860505401
  - # 9
    frequency:    9.2589325946
  - # 10
    frequency:    9.2589325946
  - # 11
    frequency:    9.2590063023
  - # 12
    frequency:   12.6611432175
  - # 13
    frequency:   13.8462855557
  - # 14
    frequency:   13.8462855557
  - # 15
    frequency:   17.9842065194

- q-position: [    0.0000000,    0.0500000,    0.0000000 ]
  band:
  - # 1
    frequency:   -4.4399691463
  - # 2
    frequency:   -4.4399691463
  - # 3
    frequency:    0.5691610974
  - # 4
    frequency:    0.5691610974
  - # 5
    frequency:    0.9195147119
  - # 6
    frequency:    5.0153747370
  - # 7
    frequency:    5.0937471814
  - # 8
    frequency:    5.0937471814
  - # 9
    frequency:    9.2661766846
  - # 10
    frequency:    9.2661766846
  - # 11
    frequency:    9.2662783482
  - # 12
    frequency:   12.6921193780
  - # 13
    frequency:   13.8402486810
  - # 14
    frequency:   13.8402486810
  - # 15
    frequency:   17.9939116150

- q-position: [    0.0000000,    0.0666667,    0.0000000 ]
  band:
  - # 1
    frequency:   -4.4185971156
  - # 2
    frequency:   -4.4185971156
  - # 3
    frequency:    0.7567170067
  - # 4
    frequency:    0.7567170067
  - # 5
    frequency:    1.2139505361
  - # 6
    frequency:    5.0891456577
  - # 7
    frequency:    5.1046779289
  - # 8
    frequency:    5.1046779289
  - # 9
    frequency:    9.2763153911
  - # 10
    frequency:    9.2763153911
  - # 11
    frequency:    9.2763380109
  - # 12
    frequency:   12.7352621313
  - # 13
    frequency:   13.8318101916
  - # 14
    frequency:   13.8318101916
  - # 15
    frequency:   18.0072760106

- q-position: [    0.0000000,    0.0833333,    0.0000000 ]
  band:
  - # 1
    frequency:   -4.3919982854
  - # 2
    frequency:   -4.3919982854
  - # 3
    frequency:    0.9422500375
  - # 4
    frequency:    0.9422500375
  - # 5
    frequency:    1.4985329662
  - # 6
    frequency:    5.1189913598
  - # 7
    frequency:    5.1189913598
  - # 8
    frequency:    5.1822233021
  - # 9
    frequency:    9.2890662294
  - # 10
    frequency:    9.2893441728
  - # 11
    frequency:    9.2893441728
  - # 12
    frequency:   12.7903385204
  - # 13
    frequency:   13.8209847698
  - # 14
    frequency:   13.8209847698
  - # 15
    frequency:   18.0240812489

- q-position: [    0.0000000,    0.1000000,    0.0000000 ]
  band:
  - # 1
    frequency:   -4.3607774501
  - # 2
    frequency:   -4.3607774501
  - # 3
    frequency:    1.1250550658
  - # 4
    frequency:    1.1250550658
  - # 5
    frequency:    1.7714173243
  - # 6
    frequency:    5.1368675329
  - # 7
    frequency:    5.1368675329
  - # 8
    frequency:    5.2932157832
  - # 9
    frequency:    9.3043129242
  - # 10
    frequency:    9.3052549034
  - # 11
    frequency:    9.3052549034
  - # 12
    frequency:   12.8570364553
  - # 13
    frequency:   13.8077935119
  - # 14
    frequency:   13.8077935119
  - # 15
    frequency:   18.0440525625

- q-position: [    0.0000000,    0.1166667,    0.0000000 ]
  band:
  - # 1
    frequency:   -4.3256156450
  - # 2
    frequency:   -4.3256156450
  - # 3
    frequency:    1.3043213867
  - # 4
    frequency:    1.3043213867
  - # 5
    frequency:    2.0311599245
  - # 6
    frequency:    5.1585078247
  - # 7
    frequency:    5.1585078247
  - # 8
    frequency:    5.4203756844
  - # 9
    frequency:    9.3218991453
  - # 10
    frequency:    9.3240339636
  - # 11
    frequency:    9.3240339636
  - # 12
    frequency:   12.9349560573
  - # 13
    frequency:   13.7922656080
  - # 14
    frequency:   13.7922656080
  - # 15
    frequency:   18.0668634341

- q-position: [    0.0000000,    0.1333333,    0.0000000 ]
  band:
  - # 1
    frequency:   -4.2872398717
  - # 2
    frequency:   -4.2872398717
  - # 3
    frequency:    1.4791384305
  - # 4
    frequency:    1.4791384305
  - # 5
    frequency:    2.2767624621
  - # 6
    frequency:    5.1841205692
  - # 7
    frequency:    5.1841205692
  - # 8
    frequency:    5.5616092322
  - # 9
    frequency:    9.3416195918
  - # 10
    frequency:    9.3456597041
  - # 11
    frequency:    9.3456597041
  - # 12
    frequency:   13.0236000507
  - # 13
    frequency:   13.7744404106
  - # 14
    frequency:   13.7744404106
  - # 15
    frequency:   18.0921411468

- q-position: [    0.0000000,    0.1500000,    0.0000000 ]
  band:
  - # 1
    frequency:   -4.2463922465
  - # 2
    frequency:   -4.2463922465
  - # 3
    frequency:    1.6485155037
  - # 4
    frequency:    1.6485155037
  - # 5
    frequency:    2.5076790115
  - # 6
    frequency:    5.2139017552
  - # 7
    frequency:    5.2139017552
  - # 8
    frequency:    5.7145170783
  - # 9
    frequency:    9.3632454467
  - # 10
    frequency:    9.3700991764
  - # 11
    frequency:    9.3700991764
  - # 12
    frequency:   13.1223638946
  - # 13
    frequency:   13.7543698960
  - # 14
    frequency:   13.7543698960
  - # 15
    frequency:   18.1194733043

- q-position: [    0.0000000,    0.1666667,    0.0000000 ]
  band:
  - # 1
    frequency:   -4.2038011550
  - # 2
    frequency:   -4.2038011550
  - # 3
    frequency:    1.8114157488
  - # 4
    frequency:    1.8114157488
  - # 5
    frequency:    2.7237808947
  - # 6
    frequency:    5.2480104493
  - # 7
    frequency:    5.2480104493
  - # 8
    frequency:    5.8764700339
  - # 9
    frequency:    9.3865274668
  - # 10
    frequency:    9.3973040256
  - # 11
    frequency:    9.3973040256
  - # 12
    frequency:   13.2305265068
  - # 13
    frequency:   13.7321215240
  - # 14
    frequency:   13.7321215240
  - # 15
    frequency:   18.1484152941

- q-position: [    0.0000000,    0.1833333,    0.0000000 ]
  band:
  - # 1
    frequency:   -4.1601568251
  - # 2
    frequency:   -4.1601568251
  - # 3
    frequency:    1.9668027277
  - # 4
    frequency:    1.9668027277
  - # 5
    frequency:    2.9252847602
  - # 6
    frequency:    5.2865394203
  - # 7
    frequency:    5.2865394203
  - # 8
    frequency:    6.0447133111
  - # 9
    frequency:    9.4111992659
  - # 10
    frequency:    9.4272054600
  - # 11
    frequency:    9.4272054600
  - # 12
    frequency:   13.3472425390
  - # 13
    frequency:   13.7077814902
  - # 14
    frequency:   13.7077814902
  - # 15
    frequency:   18.1784986592

- q-position: [    0.0000000,    0.2000000,    0.0000000 ]
  band:
  - # 1
    frequency:   -4.1160931125
  - # 2
    frequency:   -4.1160931125
  - # 3
    frequency:    2.1136959359
  - # 4
    frequency:    2.1136959359
  - # 5
    frequency:    3.1126580465
  - # 6
    frequency:    5.3294826615
  - # 7
    frequency:    5.3294826615
  - # 8
    frequency:    6.2164843973
  - # 9
    frequency:    9.4369807305
  - # 10
    frequency:    9.4597082476
  - # 11
    frequency:    9.4597082476
  - # 12
    frequency:   13.4715371818
  - # 13
    frequency:   13.6814583598
  - # 14
    frequency:   13.6814583598
  - # 15
    frequency:   18.2092403264

- q-position: [    0.0000000,    0.2166667,    0.0000000 ]
  band:
  - # 1
    frequency:   -4.0721763510
  - # 2
    frequency:   -4.0721763510
  - # 3
    frequency:    2.2512295350
  - # 4
    frequency:    2.2512295350
  - # 5
    frequency:    3.2865196913
  - # 6
    frequency:    5.3767029864
  - # 7
    frequency:    5.3767029864
  - # 8
    frequency:    6.3891264140
  - # 9
    frequency:    9.4635815076
  - # 10
    frequency:    9.4946837529
  - # 11
    frequency:    9.4946837529
  - # 12
    frequency:   13.6023043781
  - # 13
    frequency:   13.6532870517
  - # 14
    frequency:   13.6532870517
  - # 15
    frequency:   18.2401526281

- q-position: [    0.0000000,    0.2333333,    0.0000000 ]
  band:
  - # 1
    frequency:   -4.0289010988
  - # 2
    frequency:   -4.0289010988
  - # 3
    frequency:    2.3787071534
  - # 4
    frequency:    2.3787071534
  - # 5
    frequency:    3.4475516298
  - # 6
    frequency:    5.4279042340
  - # 7
    frequency:    5.4279042340
  - # 8
    frequency:    6.5601815658
  - # 9
    frequency:    9.4907045102
  - # 10
    frequency:    9.5319621215
  - # 11
    frequency:    9.5319621215
  - # 12
    frequency:   13.6234331186
  - # 13
    frequency:   13.6234331186
  - # 14
    frequency:   13.7383090955
  - # 15
    frequency:   18.2707540242

- q-position: [    0.0000000,    0.2500000,    0.0000000 ]
  band:
  - # 1
    frequency:   -3.9866917446
  - # 2
    frequency:   -3.9866917446
  - # 3
    frequency:    2.4956452710
  - # 4
    frequency:    2.4956452710
  - # 5
    frequency:    3.5964304585
  - # 6
    frequency:    5.4826132865
  - # 7
    frequency:    5.4826132865
  - # 8
    frequency:    6.7274558718
  - # 9
    frequency:    9.5180493905
  - # 10
    frequency:    9.5713238458
  - # 11
    frequency:    9.5713238458
  - # 12
    frequency:   13.5920972307
  - # 13
    frequency:   13.5920972307
  - # 14
    frequency:   13.8781939719
  - # 15
    frequency:   18.3005804010

- q-position: [    0.0000000,    0.2666667,    0.0000000 ]
  band:
  - # 1
    frequency:   -3.9459084045
  - # 2
    frequency:   -3.9459084045
  - # 3
    frequency:    2.6017988748
  - # 4
    frequency:    2.6017988748
  - # 5
    frequency:    3.7337819089
  - # 6
    frequency:    5.5401765181
  - # 7
    frequency:    5.5401765181
  - # 8
    frequency:    6.8890535071
  - # 9
    frequency:    9.5453159351
  - # 10
    frequency:    9.6124910992
  - # 11
    frequency:    9.6124910992
  - # 12
    frequency:   13.5595197150
  - # 13
    frequency:   13.5595197150
  - # 14
    frequency:   14.0204902638
  - # 15
    frequency:   18.3291967727

- q-position: [    0.0000000,    0.2833333,    0.0000000 ]
  band:
  - # 1
    frequency:   -3.9068553764
  - # 2
    frequency:   -3.9068553764
  - # 3
    frequency:    2.6971657551
  - # 4
    frequency:    2.6971657551
  - # 5
    frequency:    3.8601558269
  - # 6
    frequency:    5.5997732674
  - # 7
    frequency:    5.5997732674
  - # 8
    frequency:    7.0433843856
  - # 9
    frequency:    9.5722073447
  - # 10
    frequency:    9.6551194067
  - # 11
    frequency:    9.6551194067
  - # 12
    frequency:   13.5259849303
  - # 13
    frequency:   13.5259849303
  - # 14
    frequency:   14.1636326564
  - # 15
    frequency:   18.3562091409

- q-position: [    0.0000000,    0.3000000,    0.0000000 ]
  band:
  - # 1
    frequency:   -3.8697905661
  - # 2
    frequency:   -3.8697905661
  - # 3
    frequency:    2.7819694769
  - # 4
    frequency:    2.7819694769
  - # 5
    frequency:    3.9760168970
  - # 6
    frequency:    5.6604458283
  - # 7
    frequency:    5.6604458283
  - # 8
    frequency:    7.1891513186
  - # 9
    frequency:    9.5984333666
  - # 10
    frequency:    9.6987904055
  - # 11
    frequency:    9.6987904055
  - # 12
    frequency:   13.4918251589
  - # 13
    frequency:   13.4918251589
  - # 14
    frequency:   14.3059772343
  - # 15
    frequency:   18.3812761692

- q-position: [    0.0000000,    0.3166667,    0.0000000 ]
  band:
  - # 1
    frequency:   -3.8349346345
  - # 2
    frequency:   -3.8349346345
  - # 3
    frequency:    2.8566246891
  - # 4
    frequency:    2.8566246891
  - # 5
    frequency:    4.0817459319
  - # 6
    frequency:    5.7211422328
  - # 7
    frequency:    5.7211422328
  - # 8
    frequency:    7.3253236230
  - # 9
    frequency:    9.6237132531
  - # 10
    frequency:    9.7430066239
  - # 11
    frequency:    9.7430066239
  - # 12
    frequency:   13.4574235696
  - # 13
    frequency:   13.4574235696
  - # 14
    frequency:   14.4458218143
  - # 15
    frequency:   18.4041201964

- q-position: [    0.0000000,    0.3333333,    0.0000000 ]
  band:
  - # 1
    frequency:   -3.8024790214
  - # 2
    frequency:   -3.8024790214
  - # 3
    frequency:    2.9216909771
  - # 4
    frequency:    2.9216909771
  - # 5
    frequency:    4.1776472928
  - # 6
    frequency:    5.7807658121
  - # 7
    frequency:    5.7807658121
  - # 8
    frequency:    7.4511032699
  - # 9
    frequency:    9.6477785276
  - # 10
    frequency:    9.7871893529
  - # 11
    frequency:    9.7871893529
  - # 12
    frequency:   13.4232156611
  - # 13
    frequency:   13.4232156611
  - # 14
    frequency:   14.5814279428
  - # 15
    frequency:   18.4245369418

- q-position: [    0.0000000,    0.3500000,    0.0000000 ]
  band:
  - # 1
    frequency:   -3.7725923811
  - # 2
    frequency:   -3.7725923811
  - # 3
    frequency:    2.9778222887
  - # 4
    frequency:    2.9778222887
  - # 5
    frequency:    4.2639591700
  - # 6
    frequency:    5.8382248450
  - # 7
    frequency:    5.8382248450
  - # 8
    frequency:    7.5658883283
  - # 9
    frequency:    9.6703755411
  - # 10
    frequency:    9.8306807620
  - # 11
    frequency:    9.8306807620
  - # 12
    frequency:   13.3896884397
  - # 13
    frequency:   13.3896884397
  - # 14
    frequency:   14.7110441544
  - # 15
    frequency:   18.4424030534

- q-position: [    0.0000000,    0.3666667,    0.0000000 ]
  band:
  - # 1
    frequency:   -3.7454252770
  - # 2
    frequency:   -3.7454252770
  - # 3
    frequency:    3.0257181340
  - # 4
    frequency:    3.0257181340
  - # 5
    frequency:    4.3408645742
  - # 6
    frequency:    5.8924765409
  - # 7
    frequency:    5.8924765409
  - # 8
    frequency:    7.6692370557
  - # 9
    frequency:    9.6912678119
  - # 10
    frequency:    9.8727514008
  - # 11
    frequency:    9.8727514008
  - # 12
    frequency:   13.3573764443
  - # 13
    frequency:   13.3573764443
  - # 14
    frequency:   14.8329305030
  - # 15
    frequency:   18.4576804414

- q-position: [    0.0000000,    0.3833333,    0.0000000 ]
  band:
  - # 1
    frequency:   -3.7211132004
  - # 2
    frequency:   -3.7211132004
  - # 3
    frequency:    3.0660808761
  - # 4
    frequency:    3.0660808761
  - # 5
    frequency:    4.4085017836
  - # 6
    frequency:    5.9425615919
  - # 7
    frequency:    5.9425615919
  - # 8
    frequency:    7.7608347608
  - # 9
    frequency:    9.7102381395
  - # 10
    frequency:    9.9126140876
  - # 11
    frequency:    9.9126140876
  - # 12
    frequency:   13.3268536674
  - # 13
    frequency:   13.3268536674
  - # 14
    frequency:   14.9453848267
  - # 15
    frequency:   18.4704161686

- q-position: [    0.0000000,    0.4000000,    0.0000000 ]
  band:
  - # 1
    frequency:   -3.6997781227
  - # 2
    frequency:   -3.6997781227
  - # 3
    frequency:    3.0995812693
  - # 4
    frequency:    3.0995812693
  - # 5
    frequency:    4.4669736138
  - # 6
    frequency:    5.9876278068
  - # 7
    frequency:    5.9876278068
  - # 8
    frequency:    7.8404646045
  - # 9
    frequency:    9.7270904904
  - # 10
    frequency:    9.9494448711
  - # 11
    frequency:    9.9494448711
  - # 12
    frequency:   13.2987204887
  - # 13
    frequency:   13.2987204887
  - # 14
    frequency:   15.0467715418
  - # 15
    frequency:   18.4807366385

- q-position: [    0.0000000,    0.4166667,    0.0000000 ]
  band:
  - # 1
    frequency:   -3.6815288643
  - # 2
    frequency:   -3.6815288643
  - # 3
    frequency:    3.1268325757
  - # 4
    frequency:    3.1268325757
  - # 5
    frequency:    4.5163552710
  - # 6
    frequency:    6.0269432937
  - # 7
    frequency:    6.0269432937
  - # 8
    frequency:    7.9079828136
  - # 9
    frequency:    9.7416516560
  - # 10
    frequency:    9.9824112135
  - # 11
    frequency:    9.9824112135
  - # 12
    frequency:   13.2735850396
  - # 13
    frequency:   13.2735850396
  - # 14
    frequency:   15.1355538185
  - # 15
    frequency:   18.4888350288

- q-position: [    0.0000000,    0.4333333,    0.0000000 ]
  band:
  - # 1
    frequency:   -3.6664605986
  - # 2
    frequency:   -3.6664605986
  - # 3
    frequency:    3.1483723713
  - # 4
    frequency:    3.1483723713
  - # 5
    frequency:    4.5567007774
  - # 6
    frequency:    6.0599009790
  - # 7
    frequency:    6.0599009790
  - # 8
    frequency:    7.9632983138
  - # 9
    frequency:    9.7537726808
  - # 10
    frequency:   10.0107067425
  - # 11
    frequency:   10.0107067425
  - # 12
    frequency:   13.2520390142
  - # 13
    frequency:   13.2520390142
  - # 14
    frequency:   15.2103296151
  - # 15
    frequency:   18.4949515180

- q-position: [    0.0000000,    0.4500000,    0.0000000 ]
  band:
  - # 1
    frequency:   -3.6546538041
  - # 2
    frequency:   -3.6546538041
  - # 3
    frequency:    3.1646505575
  - # 4
    frequency:    3.1646505575
  - # 5
    frequency:    4.5880480686
  - # 6
    frequency:    6.0860169050
  - # 7
    frequency:    6.0860169050
  - # 8
    frequency:    8.0063565167
  - # 9
    frequency:    9.7633300659
  - # 10
    frequency:   10.0335908656
  - # 11
    frequency:   10.0335908656
  - # 12
    frequency:   13.2346288673
  - # 13
    frequency:   13.2346288673
  - # 14
    frequency:   15.2698711438
  - # 15
    frequency:   18.4993469045

- q-position: [    0.0000000,    0.4666667,    0.0000000 ]
  band:
  - # 1
    frequency:   -3.6461729604
  - # 2
    frequency:   -3.6461729604
  - # 3
    frequency:    3.1760219695
  - # 4
    frequency:    3.1760219695
  - # 5
    frequency:    4.6104229068
  - # 6
    frequency:    6.1049248661
  - # 7
    frequency:    6.1049248661
  - # 8
    frequency:    8.0371268589
  - # 9
    frequency:    9.7702267473
  - # 10
    frequency:   10.0504303483
  - # 11
    frequency:   10.0504303483
  - # 12
    frequency:   13.2218244836
  - # 13
    frequency:   13.2218244836
  - # 14
    frequency:   15.3131659771
  - # 15
    frequency:   18.5022716682

- q-position: [    0.0000000,    0.4833333,    0.0000000 ]
  band:
  - # 1
    frequency:   -3.6410652457
  - # 2
    frequency:   -3.6410652457
  - # 3
    frequency:    3.1827421364
  - # 4
    frequency:    3.1827421364
  - # 5
    frequency:    4.6238417542
  - # 6
    frequency:    6.1163697095
  - # 7
    frequency:    6.1163697095
  - # 8
    frequency:    8.0555936608
  - # 9
    frequency:    9.7743928550
  - # 10
    frequency:   10.0607388692
  - # 11
    frequency:   10.0607388692
  - # 12
    frequency:   13.2139885207
  - # 13
    frequency:   13.2139885207
  - # 14
    frequency:   15.3394564721
  - # 15
    frequency:   18.5039340814

- q-position: [    0.0000000,    0.5000000,    0.0000000 ]
  band:
  - # 1
    frequency:   -3.6393594476
  - # 2
    frequency:   -3.6393594476
  - # 3
    frequency:    3.1849650495
  - # 4
    frequency:    3.1849650495
  - # 5
    frequency:    4.6283137313
  - # 6
    frequency:    6.1202011849
  - # 7
    frequency:    6.1202011849
  - # 8
    frequency:    8.0617499097
  - # 9
    frequency:    9.7757862514
  - # 10
    frequency:   10.0642099508
  - # 11
    frequency:   10.0642099508
  - # 12
    frequency:   13.2113503566
  - # 13
    frequency:   13.2113503566
  - # 14
    frequency:   15.3482730277
  - # 15
    frequency:   18.5044721189

- q-position: [    0.0166667,    0.5000000,    0.0000000 ]
  band:
  - # 1
    frequency:   -3.6368105127
  - # 2
    frequency:   -3.5855923630
  - # 3
    frequency:    3.1840582492
  - # 4
    frequency:    3.1850109758
  - # 5
    frequency:    4.6238396124
  - # 6
    frequency:    6.1290974939
  - # 7
    frequency:    6.1352089367
  - # 8
    frequency:    8.0570825781
  - # 9
    frequency:    9.7118061294
  - # 10
    frequency:   10.0646758796
  - # 11
    frequency:   10.1294728202
  - # 12
    frequency:   13.2088609118
  - # 13
    frequency:   13.2089347048
  - # 14
    frequency:   15.3443090287
  - # 15
    frequency:   18.5123803039

- q-position: [    0.0333333,    0.5000000,    0.0000000 ]
  band:
  - # 1
    frequency:   -3.6292234193
  - # 2
    frequency:   -3.4206848549
  - # 3
    frequency:    3.1813493349
  - # 4
    frequency:    3.1851480981
  - # 5
    frequency:    4.6119860083
  - # 6
    frequency:    6.1556980619
  - # 7
    frequency:    6.1789687790
  - # 8
    frequency:    8.0427481526
  - # 9
    frequency:    9.5893343015
  - # 10
    frequency:   10.0660684797
  - # 11
    frequency:   10.2561466616
  - # 12
    frequency:   13.2013887360
  - # 13
    frequency:   13.2016605378
  - # 14
    frequency:   15.3324501285
  - # 15
    frequency:   18.5360989900

- q-position: [    0.0500000,    0.5000000,    0.0000000 ]
  band:
  - # 1
    frequency:   -3.6167742718
  - # 2
    frequency:   -3.1321441111
  - # 3
    frequency:    3.1768734245
  - # 4
    frequency:    3.1853744617
  - # 5
    frequency:    4.5972191911
  - # 6
    frequency:    6.1997394659
  - # 7
    frequency:    6.2481220320
  - # 8
    frequency:    8.0177615903
  - # 9
    frequency:    9.4570128351
  - # 10
    frequency:   10.0683722530
  - # 11
    frequency:   10.3966384378
  - # 12
    frequency:   13.1889223929
  - # 13
    frequency:   13.1894521981
  - # 14
    frequency:   15.3127953652
  - # 15
    frequency:   18.5756029752

- q-position: [    0.0666667,    0.5000000,    0.0000000 ]
  band:
  - # 1
    frequency:   -3.5997467361
  - # 2
    frequency:   -2.6912444999
  - # 3
    frequency:    3.1706912192
  - # 4
    frequency:    3.1856868560
  - # 5
    frequency:    4.5865987209
  - # 6
    frequency:    6.2607882095
  - # 7
    frequency:    6.3381818255
  - # 8
    frequency:    7.9805481816
  - # 9
    frequency:    9.3273491319
  - # 10
    frequency:   10.0715615697
  - # 11
    frequency:   10.5401219819
  - # 12
    frequency:   13.1714431168
  - # 13
    frequency:   13.1722029828
  - # 14
    frequency:   15.2855089551
  - # 15
    frequency:   18.6308259033

- q-position: [    0.0833333,    0.5000000,    0.0000000 ]
  band:
  - # 1
    frequency:   -3.5785181504
  - # 2
    frequency:   -2.0240756379
  - # 3
    frequency:    3.1628921770
  - # 4
    frequency:    3.1860808839
  - # 5
    frequency:    4.5903147279
  - # 6
    frequency:    6.3382491142
  - # 7
    frequency:    6.4444431844
  - # 8
    frequency:    7.9291305719
  - # 9
    frequency:    9.2058356564
  - # 10
    frequency:   10.0756009660
  - # 11
    frequency:   10.6832310774
  - # 12
    frequency:   13.1489252583
  - # 13
    frequency:   13.1498024384
  - # 14
    frequency:   15.2508189982
  - # 15
    frequency:   18.7016270058

- q-position: [    0.1000000,    0.5000000,    0.0000000 ]
  band:
  - # 1
    frequency:   -3.5535417416
  - # 2
    frequency:   -0.7334620879
  - # 3
    frequency:    3.1535987791
  - # 4
    frequency:    3.1865510556
  - # 5
    frequency:    4.6240008548
  - # 6
    frequency:    6.4313771310
  - # 7
    frequency:    6.5625307531
  - # 8
    frequency:    7.8615236748
  - # 9
    frequency:    9.0961480825
  - # 10
    frequency:   10.0804455551
  - # 11
    frequency:   10.8244661822
  - # 12
    frequency:   13.1213369162
  - # 13
    frequency:   13.1221712188
  - # 14
    frequency:   15.2090156213
  - # 15
    frequency:   18.7877506878

- q-position: [    0.1166667,    0.5000000,    0.0000000 ]
  band:
  - # 1
    frequency:   -3.5253264076
  - # 2
    frequency:    1.7750363351
  - # 3
    frequency:    3.1429716938
  - # 4
    frequency:    3.1870909030
  - # 5
    frequency:    4.7132255698
  - # 6
    frequency:    6.5392924533
  - # 7
    frequency:    6.6886169990
  - # 8
    frequency:    7.7763285959
  - # 9
    frequency:    9.0007548342
  - # 10
    frequency:   10.0860415467
  - # 11
    frequency:   10.9629907278
  - # 12
    frequency:   13.0886407640
  - # 13
    frequency:   13.0893007157
  - # 14
    frequency:   15.1604485169
  - # 15
    frequency:   18.8887842023

- q-position: [    0.1333333,    0.5000000,    0.0000000 ]
  band:
  - # 1
    frequency:   -3.4944156644
  - # 2
    frequency:    2.5532747107
  - # 3
    frequency:    3.1312155534
  - # 4
    frequency:    3.1876931110
  - # 5
    frequency:    4.8958001825
  - # 6
    frequency:    6.6609985901
  - # 7
    frequency:    6.8194562180
  - # 8
    frequency:    7.6733104671
  - # 9
    frequency:    8.9206962245
  - # 10
    frequency:   10.0923268670
  - # 11
    frequency:   11.0982739284
  - # 12
    frequency:   13.0507950845
  - # 13
    frequency:   13.0512946596
  - # 14
    frequency:   15.1055238294
  - # 15
    frequency:   19.0041189049

- q-position: [    0.1500000,    0.5000000,    0.0000000 ]
  band:
  - # 1
    frequency:   -3.4613673126
  - # 2
    frequency:    3.0116358077
  - # 3
    frequency:    3.1185849516
  - # 4
    frequency:    3.1883496619
  - # 5
    frequency:    5.2036012007
  - # 6
    frequency:    6.7954027845
  - # 7
    frequency:    6.9523468208
  - # 8
    frequency:    7.5536198929
  - # 9
    frequency:    8.8554979193
  - # 10
    frequency:   10.0992318721
  - # 11
    frequency:   11.2299557354
  - # 12
    frequency:   13.0077550333
  - # 13
    frequency:   13.0084103771
  - # 14
    frequency:   15.0447003386
  - # 15
    frequency:   19.1329200627

- q-position: [    0.1666667,    0.5000000,    0.0000000 ]
  band:
  - # 1
    frequency:   -3.4267351631
  - # 2
    frequency:    3.1053901296
  - # 3
    frequency:    3.1890519870
  - # 4
    frequency:    3.2614866214
  - # 5
    frequency:    5.6240815672
  - # 6
    frequency:    6.9413379092
  - # 7
    frequency:    7.0850783838
  - # 8
    frequency:    7.4195138977
  - # 9
    frequency:    8.8035111653
  - # 10
    frequency:   10.1066801453
  - # 11
    frequency:   11.3577856926
  - # 12
    frequency:   12.9594741571
  - # 13
    frequency:   12.9610983294
  - # 14
    frequency:   14.9784848952
  - # 15
    frequency:   19.2741089667

- q-position: [    0.1833333,    0.5000000,    0.0000000 ]
  band:
  - # 1
    frequency:   -3.3910538049
  - # 2
    frequency:    3.0920016558
  - # 3
    frequency:    3.1897911222
  - # 4
    frequency:    3.3851864058
  - # 5
    frequency:    6.1076557641
  - # 6
    frequency:    7.0975847868
  - # 7
    frequency:    7.2158870159
  - # 8
    frequency:    7.2737926633
  - # 9
    frequency:    8.7625081423
  - # 10
    frequency:   10.1145893674
  - # 11
    frequency:   11.4815911734
  - # 12
    frequency:   12.9059062129
  - # 13
    frequency:   12.9100397594
  - # 14
    frequency:   14.9074270783
  - # 15
    frequency:   19.4263594080

- q-position: [    0.2000000,    0.5000000,    0.0000000 ]
  band:
  - # 1
    frequency:   -3.3548269690
  - # 2
    frequency:    3.0788532116
  - # 3
    frequency:    3.1905578618
  - # 4
    frequency:    3.4408367966
  - # 5
    frequency:    6.6105199376
  - # 6
    frequency:    7.1192865454
  - # 7
    frequency:    7.2628938111
  - # 8
    frequency:    7.3434448748
  - # 9
    frequency:    8.7302141131
  - # 10
    frequency:   10.1228722497
  - # 11
    frequency:   11.6012590047
  - # 12
    frequency:   12.8470073465
  - # 13
    frequency:   12.8561834559
  - # 14
    frequency:   14.8321130695
  - # 15
    frequency:   19.5881087322

- q-position: [    0.2166667,    0.5000000,    0.0000000 ]
  band:
  - # 1
    frequency:   -3.3185196156
  - # 2
    frequency:    3.0664413964
  - # 3
    frequency:    3.1913429073
  - # 4
    frequency:    3.4605933764
  - # 5
    frequency:    6.9585606023
  - # 6
    frequency:    7.1070288327
  - # 7
    frequency:    7.4360047892
  - # 8
    frequency:    7.4670868585
  - # 9
    frequency:    8.7046160039
  - # 10
    frequency:   10.1314375188
  - # 11
    frequency:   11.7167238422
  - # 12
    frequency:   12.7827387243
  - # 13
    frequency:   12.8007833761
  - # 14
    frequency:   14.7531587845
  - # 15
    frequency:   19.7575820306

- q-position: [    0.2333333,    0.5000000,    0.0000000 ]
  band:
  - # 1
    frequency:   -3.2825534992
  - # 2
    frequency:    3.0553212759
  - # 3
    frequency:    3.1921370069
  - # 4
    frequency:    3.4610098771
  - # 5
    frequency:    6.7938177081
  - # 6
    frequency:    7.5609847284
  - # 7
    frequency:    7.6088934209
  - # 8
    frequency:    7.6156640671
  - # 9
    frequency:    8.6840697635
  - # 10
    frequency:   10.1401909389
  - # 11
    frequency:   11.8279601602
  - # 12
    frequency:   12.7130697547
  - # 13
    frequency:   12.7454384946
  - # 14
    frequency:   14.6712023651
  - # 15
    frequency:   19.9328268076

- q-position: [    0.2500000,    0.5000000,    0.0000000 ]
  band:
  - # 1
    frequency:   -3.2473057062
  - # 2