1715
3

   1
    0.01000000000000     0.00000000000000     0.00000000000000
    -0.08385601916291    -0.00000000000010    -0.00000000000004
     0.01107565054608    -0.00000000000011    -0.00000000000006
     0.00077717531293    -0.00000000000011    -0.00000000000007
     0.00032356345059    -0.00000000000011    -0.00000000000005
     0.00032324288890    -0.00000000000011    -0.00000000000007
     0.00077380061009    -0.00000000000013    -0.00000000000007
     0.01096405087359    -0.00000000000013    -0.00000000000006
    -0.00429917322163    -0.00002004647235    -0.00000000000005
     0.00133213005939     0.00216222347068    -0.00000000000003
     0.00042131176865     0.00029426063559    -0.00000000000007
     0.00025299433737     0.00005481902016    -0.00000000000005
     0.00025279670067    -0.00005449250568    -0.00000000000007
     0.00042044774555    -0.00029301628469    -0.00000000000005
     0.00132843503035    -0.00215186557055    -0.00000000000005
    -0.00038075755104    -0.00000068047395    -0.00000000000007
    -0.00006823026129     0.00029370033849    -0.00000000000007
     0.00012305932580     0.00016958231134    -0.00000000000003
     0.00013929956693     0.00004414798010    -0.00000000000005
     0.00013930025846    -0.00004391256105    -0.00000000000006
     0.00012318313344    -0.00016917028010    -0.00000000000009
    -0.00006740489914    -0.00029357286702    -0.00000000000003
    -0.00012421677741    -0.00000008489112    -0.00000000000006
    -0.00005401833242     0.00005463708969    -0.00000000000005
     0.00003758857953     0.00004406419434    -0.00000000000005
     0.00007873755051     0.00001418336025    -0.00000000000001
     0.00007877932373    -0.00001410983666    -0.00000000000006
     0.00003774505528    -0.00004399617697    -0.00000000000005
    -0.00005377153776    -0.00005467393491    -0.00000000000004
    -0.00012421677740     0.00000008489112    -0.00000000000007
    -0.00005401833242    -0.00005463708966    -0.00000000000008
     0.00003758857952    -0.00004406419432    -0.00000000000007
     0.00007873755051    -0.00001418336024    -0.00000000000006
     0.00007877932379     0.00001410983672    -0.00000000000007
     0.00003774505528     0.00004399617700    -0.00000000000007
    -0.00005377153773     0.00005467393492    -0.00000000000004
    -0.00038075755105     0.00000068047400    -0.00000000000007
    -0.00006823026131    -0.00029370033844    -0.00000000000006
     0.00012305932578    -0.00016958231131    -0.00000000000009
     0.00013929956692    -0.00004414798007    -0.00000000000006
     0.00013930025848     0.00004391256108    -0.00000000000007
     0.00012318313348     0.00016917028014    -0.00000000000008
    -0.00006740489914     0.00029357286707    -0.00000000000004
    -0.00429917322165     0.00002004647230    -0.00000000000006
     0.00133213005939    -0.00216222347070    -0.00000000000005
     0.00042131176863    -0.00029426063559    -0.00000000000004
     0.00025299433733    -0.00005481902017    -0.00000000000004
     0.00025279670068     0.00005449250569    -0.00000000000003
     0.00042044774556     0.00029301628468    -0.00000000000004
     0.00132843503034     0.00215186557053    -0.00000000000004
    -0.00429917322164    -0.00000000000012    -0.00002004647242
     0.00133213005939    -0.00000000000010     0.00216222347062
     0.00042131176866    -0.00000000000012     0.00029426063554
     0.00025299433736    -0.00000000000010     0.00005481902011
     0.00025279670068    -0.00000000000013    -0.00005449250573
     0.00042044774556    -0.00000000000012    -0.00029301628474
     0.00132843503035    -0.00000000000012    -0.00215186557061
    -0.00111517986740    -0.00000445143920    -0.00000445143924
     0.00010666901263     0.00057892047270     0.00057892047265
     0.00024559498492     0.00018211452359     0.00018211452355
     0.00020176949686     0.00004071789386     0.00004071789381
     0.00020170375927    -0.00004048911634    -0.00004048911638
     0.00024553054375    -0.00018154801042    -0.00018154801047
     0.00010838747975    -0.00057770991275    -0.00057770991279
    -0.00026608164180    -0.00000044570545    -0.00000017480013
    -0.00006642723499     0.00018179703060     0.00010516805207
     0.00008512744980     0.00011993092868     0.00006658024283
     0.00011631547568     0.00003427357138     0.00001895341553
     0.00011633840273    -0.00003409062011    -0.00001884951010
     0.00008530573331    -0.00011969873677    -0.00006643825410
    -0.00006582237218    -0.00018186409065    -0.00010513759546
    -0.00010334144630    -0.00000006916880    -0.00000003274225
    -0.00004821372712     0.00004058295717     0.00002648149340
     0.00003035029116     0.00003420706391     0.00002399445254
     0.00006926567773     0.00001142516557     0.00000857577508
     0.00006931747363    -0.00001136662142    -0.00000853115461
     0.00003050184274    -0.00003415702974    -0.00002396007746
    -0.00004799887116    -0.00004062373945    -0.00002649811746
    -0.00010334144632     0.00000006916882    -0.00000003274226
    -0.00004821372712    -0.00004058295718     0.00002648149342
     0.00003035029117    -0.00003420706391     0.00002399445257
     0.00006926567774    -0.00001142516558     0.00000857577511
     0.00006931747363     0.00001136662141    -0.00000853115459
     0.00003050184275     0.00003415702975    -0.00002396007745
    -0.00004799887116     0.00004062373943    -0.00002649811747
    -0.00026608164181     0.00000044570552    -0.00000017480014
    -0.00006642723498    -0.00018179703052     0.00010516805208
     0.00008512744980    -0.00011993092864     0.00006658024285
     0.00011631547569    -0.00003427357134     0.00001895341556
     0.00011633840273     0.00003409062016    -0.00001884951010
     0.00008530573330     0.00011969873680    -0.00006643825409
    -0.00006582237216     0.00018186409073    -0.00010513759547
    -0.00111517986743     0.00000445143917    -0.00000445143923
     0.00010666901267    -0.00057892047276     0.00057892047270
     0.00024559498492    -0.00018211452364     0.00018211452357
     0.00020176949685    -0.00004071789389     0.00004071789386
     0.00020170375927     0.00004048911630    -0.00004048911634
     0.00024553054374     0.00018154801040    -0.00018154801046
     0.00010838747973     0.00057770991270    -0.00057770991279
    -0.00038075755103    -0.00000000000012    -0.00000068047405
    -0.00006823026128    -0.00000000000013     0.00029370033839
     0.00012305932580    -0.00000000000010     0.00016958231124
     0.00013929956694    -0.00000000000012     0.00004414797999
     0.00013930025848    -0.00000000000013    -0.00004391256114
     0.00012318313345    -0.00000000000013    -0.00016917028021
    -0.00006740489914    -0.00000000000009    -0.00029357286712
    -0.00026608164180    -0.00000017480009    -0.00000044570555
    -0.00006642723498     0.00010516805212     0.00018179703050
     0.00008512744981     0.00006658024287     0.00011993092859
     0.00011631547569     0.00001895341559     0.00003427357128
     0.00011633840271    -0.00001884951007    -0.00003409062021
     0.00008530573332    -0.00006643825406    -0.00011969873687
    -0.00006582237216    -0.00010513759542    -0.00018186409075
    -0.00012453747777    -0.00000013597543    -0.00000013597553
    -0.00005230757471     0.00006647414529     0.00006647414519
     0.00003843179283     0.00005439697494     0.00005439697483
     0.00007576568593     0.00001818631132     0.00001818631121
     0.00007580891249    -0.00001809700049    -0.00001809700060
     0.00003859200052    -0.00005431632883    -0.00005431632894
    -0.00005202614186    -0.00006654413727    -0.00006654413738
    -0.00006694247593    -0.00000003198736    -0.00000003425865
    -0.00003564109330     0.00001888927456     0.00002396276628
     0.00001863152755     0.00001815128638     0.00002398485481
     0.00005034177656     0.00000663845754     0.00000921205746
     0.00005038227573    -0.00000660804848    -0.00000916485384
     0.00001875215084    -0.00001813203093    -0.00002395905639
    -0.00003550480064    -0.00001891356802    -0.00002399171483
    -0.00006694247595     0.00000003198741    -0.00000003425864
    -0.00003564109329    -0.00001888927456     0.00002396276628
     0.00001863152754    -0.00001815128640     0.00002398485481
     0.00005034177660    -0.00000663845757     0.00000921205748
     0.00005038227573     0.00000660804850    -0.00000916485388
     0.00001875215083     0.00001813203093    -0.00002395905641
    -0.00003550480064     0.00001891356801    -0.00002399171482
    -0.00012453747780     0.00000013597547    -0.00000013597556
    -0.00005230757470    -0.00006647414525     0.00006647414518
     0.00003843179281    -0.00005439697491     0.00005439697481
     0.00007576568594    -0.00001818631128     0.00001818631120
     0.00007580891249     0.00001809700052    -0.00001809700062
     0.00003859200053     0.00005431632886    -0.00005431632893
    -0.00005202614184     0.00006654413734    -0.00006654413741
    -0.00026608164177     0.00000017480009    -0.00000044570555
    -0.00006642723496    -0.00010516805216     0.00018179703051
     0.00008512744983    -0.00006658024293     0.00011993092861
     0.00011631547568    -0.00001895341563     0.00003427357128
     0.00011633840271     0.00001884951004    -0.00003409062021
     0.00008530573331     0.00006643825404    -0.00011969873687
    -0.00006582237215     0.00010513759540    -0.00018186409074
    -0.00012421677739    -0.00000000000012    -0.00000008489120
    -0.00005401833242    -0.00000000000013     0.00005463708961
     0.00003758857953    -0.00000000000013     0.00004406419427
     0.00007873755047    -0.00000000000010     0.00001418336016
     0.00007877932372    -0.00000000000011    -0.00001410983672
     0.00003774505529    -0.00000000000012    -0.00004399617705
    -0.00005377153777    -0.00000000000011    -0.00005467393501
    -0.00010334144631    -0.00000003274221    -0.00000006916887
    -0.00004821372713     0.00002648149346     0.00004058295709
     0.00003035029117     0.00002399445259     0.00003420706384
     0.00006926567772     0.00000857577514     0.00001142516548
     0.00006931747364    -0.00000853115454    -0.00001136662149
     0.00003050184273    -0.00002396007742    -0.00003415702983
    -0.00004799887115    -0.00002649811742    -0.00004062373952
    -0.00006694247594    -0.00000003425854    -0.00000003198745
    -0.00003564109331     0.00002396276640     0.00001888927449
     0.00001863152752     0.00002398485490     0.00001815128631
     0.00005034177657     0.00000921205757     0.00000663845747
     0.00005038227572    -0.00000916485374    -0.00000660804856
     0.00001875215083    -0.00002395905630    -0.00001813203101
    -0.00003550480066    -0.00002399171473    -0.00001891356810
    -0.00004581105264    -0.00000001350027    -0.00000001350032
    -0.00002619259802     0.00000854718130     0.00000854718124
     0.00001148795928     0.00000919206331     0.00000919206324
     0.00003767042353     0.00000359162855     0.00000359162851
     0.00003770365962    -0.00000357483018    -0.00000357483027
     0.00001157807654    -0.00000918488175    -0.00000918488182
    -0.00002610538605    -0.00000855970630    -0.00000855970635
    -0.00004581105265     0.00000001350023    -0.00000001350027
    -0.00002619259799    -0.00000854718131     0.00000854718127
     0.00001148795929    -0.00000919206334     0.00000919206328
     0.00003767042356    -0.00000359162858     0.00000359162851
     0.00003770365966     0.00000357483022    -0.00000357483021
     0.00001157807654     0.00000918488172    -0.00000918488180
    -0.00002610538601     0.00000855970625    -0.00000855970636
    -0.00006694247593     0.00000003425859    -0.00000003198744
    -0.00003564109330    -0.00002396276635     0.00001888927450
     0.00001863152751    -0.00002398485489     0.00001815128633
     0.00005034177658    -0.00000921205758     0.00000663845751
     0.00005038227571     0.00000916485374    -0.00000660804854
     0.00001875215082     0.00002395905629    -0.00001813203101
    -0.00003550480064     0.00002399171474    -0.00001891356810
    -0.00010334144629     0.00000003274218    -0.00000006916890
    -0.00004821372710    -0.00002648149349     0.00004058295712
     0.00003035029115    -0.00002399445266     0.00003420706384
     0.00006926567771    -0.00000857577521     0.00001142516551
     0.00006931747361     0.00000853115455    -0.00001136662150
     0.00003050184272     0.00002396007739    -0.00003415702984
    -0.00004799887119     0.00002649811738    -0.00004062373957
    -0.00012421677740    -0.00000000000013     0.00000008489112
    -0.00005401833243    -0.00000000000015    -0.00005463708966
     0.00003758857952    -0.00000000000014    -0.00004406419430
     0.00007873755051    -0.00000000000014    -0.00001418336024
     0.00007877932377    -0.00000000000014     0.00001410983673
     0.00003774505528    -0.00000000000014     0.00004399617701
    -0.00005377153773    -0.00000000000012     0.00005467393492
    -0.00010334144631    -0.00000003274221     0.00000006916883
    -0.00004821372710     0.00002648149348    -0.00004058295715
     0.00003035029116     0.00002399445264    -0.00003420706389
     0.00006926567775     0.00000857577516    -0.00001142516555
     0.00006931747362    -0.00000853115454     0.00001136662143
     0.00003050184274    -0.00002396007740     0.00003415702977
    -0.00004799887115    -0.00002649811739     0.00004062373946
    -0.00006694247595    -0.00000003425853     0.00000003198742
    -0.00003564109327     0.00002396276640    -0.00001888927453
     0.00001863152754     0.00002398485493    -0.00001815128639
     0.00005034177660     0.00000921205758    -0.00000663845756
     0.00005038227573    -0.00000916485374     0.00000660804850
     0.00001875215083    -0.00002395905629     0.00001813203093
    -0.00003550480063    -0.00002399171470     0.00001891356801
    -0.00004581105268    -0.00000001350022     0.00000001350025
    -0.00002619259800     0.00000854718134    -0.00000854718130
     0.00001148795928     0.00000919206335    -0.00000919206332
     0.00003767042353     0.00000359162856    -0.00000359162855
     0.00003770365964    -0.00000357483016     0.00000357483021
     0.00001157807655    -0.00000918488173     0.00000918488175
    -0.00002610538600    -0.00000855970628     0.00000855970628
    -0.00004581105268     0.00000001350028     0.00000001350030
    -0.00002619259799    -0.00000854718133    -0.00000854718131
     0.00001148795928    -0.00000919206333    -0.00000919206332
     0.00003767042358    -0.00000359162856    -0.00000359162856
     0.00003770365962     0.00000357483019     0.00000357483018
     0.00001157807651     0.00000918488172     0.00000918488174
    -0.00002610538600     0.00000855970625     0.00000855970627
    -0.00006694247595     0.00000003425857     0.00000003198742
    -0.00003564109328    -0.00002396276635    -0.00001888927454
     0.00001863152751    -0.00002398485490    -0.00001815128639
     0.00005034177659    -0.00000921205758    -0.00000663845757
     0.00005038227571     0.00000916485370     0.00000660804848
     0.00001875215083     0.00002395905630     0.00001813203091
    -0.00003550480062     0.00002399171475     0.00001891356800
    -0.00010334144628     0.00000003274221     0.00000006916882
    -0.00004821372708    -0.00002648149351    -0.00004058295717
     0.00003035029116    -0.00002399445265    -0.00003420706393
     0.00006926567772    -0.00000857577518    -0.00001142516558
     0.00006931747360     0.00000853115454     0.00001136662141
     0.00003050184273     0.00002396007739     0.00003415702973
    -0.00004799887115     0.00002649811740     0.00004062373944
    -0.00038075755106    -0.00000000000014     0.00000068047408
    -0.00006823026129    -0.00000000000011    -0.00029370033834
     0.00012305932579    -0.00000000000014    -0.00016958231123
     0.00013929956693    -0.00000000000010    -0.00004414797997
     0.00013930025849    -0.00000000000014     0.00004391256116
     0.00012318313349    -0.00000000000013     0.00016917028021
    -0.00006740489914    -0.00000000000011     0.00029357286717
    -0.00026608164178    -0.00000017480008     0.00000044570560
    -0.00006642723496     0.00010516805216    -0.00018179703043
     0.00008512744980     0.00006658024292    -0.00011993092856
     0.00011631547569     0.00001895341562    -0.00003427357127
     0.00011633840272    -0.00001884951004     0.00003409062023
     0.00008530573330    -0.00006643825403     0.00011969873688
    -0.00006582237214    -0.00010513759541     0.00018186409080
    -0.00012453747780    -0.00000013597544     0.00000013597554
    -0.00005230757468     0.00006647414528    -0.00006647414516
     0.00003843179280     0.00005439697492    -0.00005439697485
     0.00007576568595     0.00001818631130    -0.00001818631120
     0.00007580891248    -0.00001809700051     0.00001809700058
     0.00003859200054    -0.00005431632882     0.00005431632894
    -0.00005202614185    -0.00006654413730     0.00006654413740
    -0.00006694247592    -0.00000003198737     0.00000003425866
    -0.00003564109329     0.00001888927457    -0.00002396276627
     0.00001863152753     0.00001815128640    -0.00002398485481
     0.00005034177658     0.00000663845756    -0.00000921205753
     0.00005038227572    -0.00000660804849     0.00000916485382
     0.00001875215082    -0.00001813203095     0.00002395905636
    -0.00003550480063    -0.00001891356804     0.00002399171482
    -0.00006694247596     0.00000003198741     0.00000003425865
    -0.00003564109328    -0.00001888927456    -0.00002396276627
     0.00001863152752    -0.00001815128641    -0.00002398485484
     0.00005034177659    -0.00000663845758    -0.00000921205750
     0.00005038227572     0.00000660804848     0.00000916485375
     0.00001875215085     0.00001813203093     0.00002395905639
    -0.00003550480061     0.00001891356800     0.00002399171483
    -0.00012453747781     0.00000013597550     0.00000013597555
    -0.00005230757469    -0.00006647414527    -0.00006647414519
     0.00003843179281    -0.00005439697488    -0.00005439697482
     0.00007576568591    -0.00001818631130    -0.00001818631124
     0.00007580891249     0.00001809700053     0.00001809700060
     0.00003859200050     0.00005431632883     0.00005431632890
    -0.00005202614184     0.00006654413735     0.00006654413741
    -0.00026608164179     0.00000017480008     0.00000044570560
    -0.00006642723497    -0.00010516805215    -0.00018179703046
     0.00008512744980    -0.00006658024293    -0.00011993092859
     0.00011631547566    -0.00001895341563    -0.00003427357129
     0.00011633840271     0.00001884951006     0.00003409062023
     0.00008530573333     0.00006643825403     0.00011969873688
    -0.00006582237214     0.00010513759540     0.00018186409083
    -0.00429917322164    -0.00000000000013     0.00002004647237
     0.00133213005940    -0.00000000000012    -0.00216222347062
     0.00042131176864    -0.00000000000011    -0.00029426063552
     0.00025299433732    -0.00000000000011    -0.00005481902012
     0.00025279670068    -0.00000000000010     0.00005449250576
     0.00042044774557    -0.00000000000010     0.00029301628475
     0.00132843503035    -0.00000000000009     0.00215186557060
    -0.00111517986741    -0.00000445143917     0.00000445143924
     0.00010666901267     0.00057892047275    -0.00057892047270
     0.00024559498492     0.00018211452361    -0.00018211452357
     0.00020176949686     0.00004071789391    -0.00004071789383
     0.00020170375927    -0.00004048911631     0.00004048911636
     0.00024553054375    -0.00018154801041     0.00018154801047
     0.00010838747973    -0.00057770991275     0.00057770991277
    -0.00026608164178    -0.00000044570545     0.00000017480016
    -0.00006642723497     0.00018179703061    -0.00010516805209
     0.00008512744984     0.00011993092872    -0.00006658024287
     0.00011631547566     0.00003427357138    -0.00001895341557
     0.00011633840270    -0.00003409062012     0.00001884951012
     0.00008530573330    -0.00011969873678     0.00006643825410
    -0.00006582237216    -0.00018186409065     0.00010513759548
    -0.00010334144629    -0.00000006916884     0.00000003274225
    -0.00004821372708     0.00004058295718    -0.00002648149341
     0.00003035029116     0.00003420706390    -0.00002399445257
     0.00006926567771     0.00001142516555    -0.00000857577512
     0.00006931747362    -0.00001136662142     0.00000853115463
     0.00003050184274    -0.00003415702977     0.00002396007747
    -0.00004799887119    -0.00004062373948     0.00002649811745
    -0.00010334144628     0.00000006916882     0.00000003274229
    -0.00004821372711    -0.00004058295718    -0.00002648149343
     0.00003035029115    -0.00003420706395    -0.00002399445256
     0.00006926567772    -0.00001142516560    -0.00000857577509
     0.00006931747361     0.00001136662139     0.00000853115464
     0.00003050184273     0.00003415702972     0.00002396007747
    -0.00004799887118     0.00004062373941     0.00002649811747
    -0.00026608164177     0.00000044570552     0.00000017480016
    -0.00006642723498    -0.00018179703053    -0.00010516805208
     0.00008512744978    -0.00011993092867    -0.00006658024286
     0.00011631547565    -0.00003427357136    -0.00001895341556
     0.00011633840270     0.00003409062014     0.00001884951011
     0.00008530573331     0.00011969873679     0.00006643825409
    -0.00006582237216     0.00018186409072     0.00010513759545
    -0.00111517986738     0.00000445143916     0.00000445143922
     0.00010666901265    -0.00057892047279    -0.00057892047272
     0.00024559498491    -0.00018211452364    -0.00018211452357
     0.00020176949681    -0.00004071789394    -0.00004071789388
     0.00020170375925     0.00004048911627     0.00004048911634
     0.00024553054375     0.00018154801038     0.00018154801044
     0.00010838747974     0.00057770991270     0.00057770991277
     0.00069722808376     0.01384678774866     0.01384678774864
     0.00216173154618     0.00092441498071     0.00092441498070
     0.00090141099721     0.00015424122211     0.00015424122210
     0.00062476949505     0.00000013892632     0.00000013892631
     0.00089981907455    -0.00015357055295    -0.00015357055298
     0.00215793127356    -0.00091927549102    -0.00091927549104
     0.00077717716535    -0.01378190754329    -0.01378190754330
    -0.00091115068833     0.00171781099578     0.00032169646332
     0.00029304955480     0.00083695718049     0.00026952423247
     0.00042594045279     0.00024352180922     0.00007951124850
     0.00039882650619     0.00000023991353     0.00000008422193
     0.00042588119192    -0.00024267503365    -0.00007923398926
     0.00029418987866    -0.00083468275335    -0.00026874368868
    -0.00090703665969    -0.00172002723051    -0.00032203333952
    -0.00028683158574     0.00026523028479     0.00003939791302
     0.00000504064183     0.00029348206899     0.00005758355474
     0.00017401214934     0.00012851938868     0.00002974843008
     0.00021453414323     0.00000014532161     0.00000003729786
     0.00017423123035    -0.00012815576421    -0.00002966810108
     0.00000566558165    -0.00029311917017    -0.00005752588902
    -0.00028630077840    -0.00026601030655    -0.00003949733965
    -0.00016938746718    -0.00000000000002     0.00001433592764
    -0.00001906095442    -0.00000000000003     0.00002602823283
     0.00011060093750    -0.00000000000005     0.00001657108292
     0.00015450327889    -0.00000000000005     0.00000001891161
     0.00011080818380    -0.00000000000007    -0.00001653235307
    -0.00001867037319    -0.00000000000004    -0.00002601962258
    -0.00016914065338    -0.00000000000001    -0.00001438661501
    -0.00028683158569    -0.00026523028465     0.00003939791301
     0.00000504064188    -0.00029348206892     0.00005758355472
     0.00017401214924    -0.00012851938853     0.00002974843005
     0.00021453414321    -0.00000014532150     0.00000003729788
     0.00017423123041     0.00012815576432    -0.00002966810107
     0.00000566558162     0.00029311917035    -0.00005752588905
    -0.00028630077839     0.00026601030680    -0.00003949733966
    -0.00091115068828    -0.00171781099573     0.00032169646333
     0.00029304955477    -0.00083695718048     0.00026952423250
     0.00042594045284    -0.00024352180920     0.00007951124850
     0.00039882650618    -0.00000023991357     0.00000008422197
     0.00042588119197     0.00024267503369    -0.00007923398926
     0.00029418987868     0.00083468275335    -0.00026874368862
    -0.00090703665983     0.00172002723046    -0.00032203333956
     0.00069722808373    -0.01384678774796     0.01384678774862
     0.00216173154623    -0.00092441498006     0.00092441498068
     0.00090141099725    -0.00015424122142     0.00015424122212
     0.00062476949506    -0.00000013892565     0.00000013892627
     0.00089981907462     0.00015357055370    -0.00015357055297
     0.00215793127339     0.00091927549159    -0.00091927549111
     0.00077717716529     0.01378190754390    -0.01378190754331
    -0.00091115068832     0.00032169646334     0.00171781099558
     0.00029304955481     0.00026952423249     0.00083695718030
     0.00042594045281     0.00007951124853     0.00024352180905
     0.00039882650616     0.00000008422193     0.00000023991330
     0.00042588119193    -0.00007923398926    -0.00024267503385
     0.00029418987867    -0.00026874368863    -0.00083468275354
    -0.00090703665972    -0.00032203333950    -0.00172002723074
    -0.00044121156352     0.00030434654812     0.00030434654791
     0.00005481563361     0.00032462912620     0.00032462912600
     0.00024832449458     0.00013509050222     0.00013509050200
     0.00027566256735     0.00000015268945     0.00000015268921
     0.00024852619303    -0.00013470057814    -0.00013470057834
     0.00005574579055    -0.00032417511960    -0.00032417511979
    -0.00043981562374    -0.00030543214326    -0.00030543214349
    -0.00019377155839     0.00010257361074     0.00006318921971
    -0.00001201016267     0.00015123481771     0.00010005752308
     0.00012338576511     0.00007860871651     0.00005659921334
     0.00016332395386     0.00000009981324     0.00000007613588
     0.00012360642409    -0.00007841119522    -0.00005646083036
    -0.00001154482081    -0.00015114824085    -0.00010000361744
    -0.00019344225799    -0.00010301928910    -0.00006341243668
    -0.00012908618279    -0.00000000000004     0.00002732340614
    -0.00001924345658    -0.00000000000003     0.00005074266848
     0.00008576487418    -0.00000000000003     0.00003339912505
     0.00012376717039     0.00000000000004     0.00000004349552
     0.00008595432015     0.00000000000003    -0.00003332431888
    -0.00001895845748    -0.00000000000004    -0.00005073328271
    -0.00012891752966    -0.00000000000001    -0.00002741576569
    -0.00019377155840    -0.00010257361062     0.00006318921974
    -0.00001201016267    -0.00015123481757     0.00010005752310
     0.00012338576508    -0.00007860871634     0.00005659921333
     0.00016332395393    -0.00000009981314     0.00000007613594
     0.00012360642408     0.00007841119537    -0.00005646083028
    -0.00001154482085     0.00015114824105    -0.00010000361744
    -0.00019344225794     0.00010301928939    -0.00006341243665
    -0.00044121156344    -0.00030434654807     0.00030434654791
     0.00005481563353    -0.00032462912614     0.00032462912597
     0.00024832449464    -0.00013509050213     0.00013509050202
     0.00027566256734    -0.00000015268943     0.00000015268922
     0.00024852619303     0.00013470057819    -0.00013470057835
     0.00005574579055     0.00032417511959    -0.00032417511978
    -0.00043981562384     0.00030543214323    -0.00030543214349
    -0.00091115068833    -0.00032169646270     0.00171781099562
     0.00029304955486    -0.00026952423187     0.00083695718035
     0.00042594045285    -0.00007951124785     0.00024352180908
     0.00039882650620    -0.00000008422132     0.00000023991338
     0.00042588119205     0.00007923398996    -0.00024267503383
     0.00029418987853     0.00026874368923    -0.00083468275348
    -0.00090703665970     0.00032203334013    -0.00172002723068
    -0.00028683158570     0.00003939791307     0.00026523028466
     0.00000504064187     0.00005758355475     0.00029348206886
     0.00017401214932     0.00002974843012     0.00012851938853
     0.00021453414326     0.00000003729791     0.00000014532149
     0.00017423123036    -0.00002966810106    -0.00012815576434
     0.00000566558167    -0.00005752588895    -0.00029311917033
    -0.00028630077843    -0.00003949733962    -0.00026601030674
    -0.00019377155842     0.00006318921991     0.00010257361059
    -0.00001201016269     0.00010005752326     0.00015123481757
     0.00012338576510     0.00005659921354     0.00007860871638
     0.00016332395386     0.00000007613609     0.00000009981311
     0.00012360642407    -0.00005646083015    -0.00007841119538
    -0.00001154482084    -0.00010000361724    -0.00015114824101
    -0.00019344225799    -0.00006341243646    -0.00010301928927
    -0.00011542694174     0.00003322671114     0.00003322671103
    -0.00001710206131     0.00005977511697     0.00005977511686
     0.00007658460398     0.00003736663822     0.00003736663809
     0.00011084601283     0.00000004272342     0.00000004272327
     0.00007675747160    -0.00003727988781    -0.00003727988795
    -0.00001681327230    -0.00005976897072    -0.00005976897085
    -0.00011526817316    -0.00003337374275    -0.00003337374291
    -0.00008852084279    -0.00000000000001     0.00001767202552
    -0.00001694181043    -0.00000000000004     0.00003434568222
     0.00006024703924    -0.00000000000005     0.00002412028290
     0.00009118669456    -0.00000000000007     0.00000003091090
     0.00006040515354    -0.00000000000006    -0.00002406826673