nqpoint: 151    
natom:   5      
reciprocal_lattice:
- [   0.25180157,   0.00000000,   0.00000000 ] # a*
- [   0.00000000,   0.25180157,   0.00000000 ] # b*
- [   0.00000000,   0.00000000,   0.25180157 ] # c*
phonon:
- q-position: [    0.0000000,    0.0000000,    0.0000000 ]
  band:
  - # 1
    frequency:   -0.1103013453
  - # 2
    frequency:   -0.1103013453
  - # 3
    frequency:   -0.1103013453
  - # 4
    frequency:    1.4578427872
  - # 5
    frequency:    1.4578427872
  - # 6
    frequency:    1.4578427872
  - # 7
    frequency:    5.1273252991
  - # 8
    frequency:    5.1273252991
  - # 9
    frequency:    5.1273252991
  - # 10
    frequency:    9.3758862953
  - # 11
    frequency:    9.3758862953
  - # 12
    frequency:    9.3758862953
  - # 13
    frequency:   14.3513980747
  - # 14
    frequency:   14.3513980747
  - # 15
    frequency:   14.3513980747

- q-position: [    0.0000000,    0.0166667,    0.0000000 ]
  band:
  - # 1
    frequency:    0.1461739885
  - # 2
    frequency:    0.1461739885
  - # 3
    frequency:    0.2924130480
  - # 4
    frequency:    1.4708202282
  - # 5
    frequency:    1.4708202282
  - # 6
    frequency:    5.0882315666
  - # 7
    frequency:    5.1285191034
  - # 8
    frequency:    5.1285191034
  - # 9
    frequency:    9.3771419810
  - # 10
    frequency:    9.3772881542
  - # 11
    frequency:    9.3772881542
  - # 12
    frequency:   12.7540486290
  - # 13
    frequency:   14.3500141797
  - # 14
    frequency:   14.3500141797
  - # 15
    frequency:   18.8673553640

- q-position: [    0.0000000,    0.0333333,    0.0000000 ]
  band:
  - # 1
    frequency:    0.3449182285
  - # 2
    frequency:    0.3449182285
  - # 3
    frequency:    0.5822063493
  - # 4
    frequency:    1.5096191543
  - # 5
    frequency:    1.5096191543
  - # 6
    frequency:    5.1186020536
  - # 7
    frequency:    5.1321378224
  - # 8
    frequency:    5.1321378224
  - # 9
    frequency:    9.3808920359
  - # 10
    frequency:    9.3814924479
  - # 11
    frequency:    9.3814924479
  - # 12
    frequency:   12.8001100619
  - # 13
    frequency:   14.3458651222
  - # 14
    frequency:   14.3458651222
  - # 15
    frequency:   18.8731649821

- q-position: [    0.0000000,    0.0500000,    0.0000000 ]
  band:
  - # 1
    frequency:    0.5217190406
  - # 2
    frequency:    0.5217190406
  - # 3
    frequency:    0.8650962282
  - # 4
    frequency:    1.5737016075
  - # 5
    frequency:    1.5737016075
  - # 6
    frequency:    5.1382933971
  - # 7
    frequency:    5.1382933971
  - # 8
    frequency:    5.1684346460
  - # 9
    frequency:    9.3870857584
  - # 10
    frequency:    9.3884952746
  - # 11
    frequency:    9.3884952746
  - # 12
    frequency:   12.8699824037
  - # 13
    frequency:   14.3389590148
  - # 14
    frequency:   14.3389590148
  - # 15
    frequency:   18.8849744710

- q-position: [    0.0000000,    0.0666667,    0.0000000 ]
  band:
  - # 1
    frequency:    0.6847637156
  - # 2
    frequency:    0.6847637156
  - # 3
    frequency:    1.1386770249
  - # 4
    frequency:    1.6617314424
  - # 5
    frequency:    1.6617314424
  - # 6
    frequency:    5.1471722223
  - # 7
    frequency:    5.1471722223
  - # 8
    frequency:    5.2367443954
  - # 9
    frequency:    9.3956396574
  - # 10
    frequency:    9.3982899296
  - # 11
    frequency:    9.3982899296
  - # 12
    frequency:   12.9552015301
  - # 13
    frequency:   14.3293101445
  - # 14
    frequency:   14.3293101445
  - # 15
    frequency:   18.9049607048

- q-position: [    0.0000000,    0.0833333,    0.0000000 ]
  band:
  - # 1
    frequency:    0.8344013466
  - # 2
    frequency:    0.8344013466
  - # 3
    frequency:    1.4012449493
  - # 4
    frequency:    1.7710865944
  - # 5
    frequency:    1.7710865944
  - # 6
    frequency:    5.1590340010
  - # 7
    frequency:    5.1590340010
  - # 8
    frequency:    5.3224032710
  - # 9
    frequency:    9.4064389485
  - # 10
    frequency:    9.4108665139
  - # 11
    frequency:    9.4108665139
  - # 12
    frequency:   13.0470875799
  - # 13
    frequency:   14.3169401131
  - # 14
    frequency:   14.3169401131
  - # 15
    frequency:   18.9344709965

- q-position: [    0.0000000,    0.1000000,    0.0000000 ]
  band:
  - # 1
    frequency:    0.9714299386
  - # 2
    frequency:    0.9714299386
  - # 3
    frequency:    1.6519658519
  - # 4
    frequency:    1.8976612256
  - # 5
    frequency:    1.8976612256
  - # 6
    frequency:    5.1742082797
  - # 7
    frequency:    5.1742082797
  - # 8
    frequency:    5.4241989132
  - # 9
    frequency:    9.4193396034
  - # 10
    frequency:    9.4262112142
  - # 11
    frequency:    9.4262112142
  - # 12
    frequency:   13.1386740383
  - # 13
    frequency:   14.3018794217
  - # 14
    frequency:   14.3018794217
  - # 15
    frequency:   18.9730499559

- q-position: [    0.0000000,    0.1166667,    0.0000000 ]
  band:
  - # 1
    frequency:    1.0976633734
  - # 2
    frequency:    1.0976633734
  - # 3
    frequency:    1.8908122090
  - # 4
    frequency:    2.0362548688
  - # 5
    frequency:    2.0362548688
  - # 6
    frequency:    5.1930866487
  - # 7
    frequency:    5.1930866487
  - # 8
    frequency:    5.5408192514
  - # 9
    frequency:    9.4341709104
  - # 10
    frequency:    9.4443051013
  - # 11
    frequency:    9.4443051013
  - # 12
    frequency:   13.2258256268
  - # 13
    frequency:   14.2841694831
  - # 14
    frequency:   14.2841694831
  - # 15
    frequency:   19.0180436481

- q-position: [    0.0000000,    0.1333333,    0.0000000 ]
  band:
  - # 1
    frequency:    1.2153875851
  - # 2
    frequency:    1.2153875851
  - # 3
    frequency:    2.1183567673
  - # 4
    frequency:    2.1813573774
  - # 5
    frequency:    2.1813573774
  - # 6
    frequency:    5.2161079414
  - # 7
    frequency:    5.2161079414
  - # 8
    frequency:    5.6708193851
  - # 9
    frequency:    9.4507384883
  - # 10
    frequency:    9.4651222699
  - # 11
    frequency:    9.4651222699
  - # 12
    frequency:   13.3072359960
  - # 13
    frequency:   14.2638650466
  - # 14
    frequency:   14.2638650466
  - # 15
    frequency:   19.0649967594

- q-position: [    0.0000000,    0.1500000,    0.0000000 ]
  band:
  - # 1
    frequency:    1.3267425453
  - # 2
    frequency:    1.3267425453
  - # 3
    frequency:    2.3278505816
  - # 4
    frequency:    2.3278505816
  - # 5
    frequency:    2.3354765338
  - # 6
    frequency:    5.2437333580
  - # 7
    frequency:    5.2437333580
  - # 8
    frequency:    5.8126160495
  - # 9
    frequency:    9.4688276838
  - # 10
    frequency:    9.4886271442
  - # 11
    frequency:    9.4886271442
  - # 12
    frequency:   13.3834805337
  - # 13
    frequency:   14.2410370122
  - # 14
    frequency:   14.2410370122
  - # 15
    frequency:   19.1087062434

- q-position: [    0.0000000,    0.1666667,    0.0000000 ]
  band:
  - # 1
    frequency:    1.4334018984
  - # 2
    frequency:    1.4334018984
  - # 3
    frequency:    2.4713684848
  - # 4
    frequency:    2.4713684848
  - # 5
    frequency:    2.5430376378
  - # 6
    frequency:    5.2764087174
  - # 7
    frequency:    5.2764087174
  - # 8
    frequency:    5.9645136170
  - # 9
    frequency:    9.4882072736
  - # 10
    frequency:    9.5147707866
  - # 11
    frequency:    9.5147707866
  - # 12
    frequency:   13.4556679659
  - # 13
    frequency:   14.2157756095
  - # 14
    frequency:   14.2157756095
  - # 15
    frequency:   19.1445159068

- q-position: [    0.0000000,    0.1833333,    0.0000000 ]
  band:
  - # 1
    frequency:    1.5365281869
  - # 2
    frequency:    1.5365281869
  - # 3
    frequency:    2.6083744198
  - # 4
    frequency:    2.6083744198
  - # 5
    frequency:    2.7416328179
  - # 6
    frequency:    5.3145125845
  - # 7
    frequency:    5.3145125845
  - # 8
    frequency:    6.1247353776
  - # 9
    frequency:    9.5086333805
  - # 10
    frequency:    9.5434860944
  - # 11
    frequency:    9.5434860944
  - # 12
    frequency:   13.5243018077
  - # 13
    frequency:   14.1881939053
  - # 14
    frequency:   14.1881939053
  - # 15
    frequency:   19.1693873788

- q-position: [    0.0000000,    0.2000000,    0.0000000 ]
  band:
  - # 1
    frequency:    1.6368601501
  - # 2
    frequency:    1.6368601501
  - # 3
    frequency:    2.7361112903
  - # 4
    frequency:    2.7361112903
  - # 5
    frequency:    2.9314250190
  - # 6
    frequency:    5.3582923460
  - # 7
    frequency:    5.3582923460
  - # 8
    frequency:    6.2914327374
  - # 9
    frequency:    9.5298535053
  - # 10
    frequency:    9.5746818335
  - # 11
    frequency:    9.5746818335
  - # 12
    frequency:   13.5887627044
  - # 13
    frequency:   14.1584315979
  - # 14
    frequency:   14.1584315979
  - # 15
    frequency:   19.1824349620

- q-position: [    0.0000000,    0.2166667,    0.0000000 ]
  band:
  - # 1
    frequency:    1.7348275945
  - # 2
    frequency:    1.7348275945
  - # 3
    frequency:    2.8525291524
  - # 4
    frequency:    2.8525291524
  - # 5
    frequency:    3.1121222945
  - # 6
    frequency:    5.4077952613
  - # 7
    frequency:    5.4077952613
  - # 8
    frequency:    6.4626628108
  - # 9
    frequency:    9.5516105731
  - # 10
    frequency:    9.6082355575
  - # 11
    frequency:    9.6082355575
  - # 12
    frequency:   13.6475191447
  - # 13
    frequency:   14.1266590350
  - # 14
    frequency:   14.1266590350
  - # 15
    frequency:   19.1848319152

- q-position: [    0.0000000,    0.2333333,    0.0000000 ]
  band:
  - # 1
    frequency:    1.8306493096
  - # 2
    frequency:    1.8306493096
  - # 3
    frequency:    2.9562254330
  - # 4
    frequency:    2.9562254330
  - # 5
    frequency:    3.2830803471
  - # 6
    frequency:    5.4628067190
  - # 7
    frequency:    5.4628067190
  - # 8
    frequency:    6.6363428809
  - # 9
    frequency:    9.5736468915
  - # 10
    frequency:    9.6439855825
  - # 11
    frequency:    9.6439855825
  - # 12
    frequency:   13.6989047757
  - # 13
    frequency:   14.0930813713
  - # 14
    frequency:   14.0930813713
  - # 15
    frequency:   19.1791864973

- q-position: [    0.0000000,    0.2500000,    0.0000000 ]
  band:
  - # 1
    frequency:    1.9244041211
  - # 2
    frequency:    1.9244041211
  - # 3
    frequency:    3.0463937033
  - # 4
    frequency:    3.0463937033
  - # 5
    frequency:    3.4435030541
  - # 6
    frequency:    5.5228107187
  - # 7
    frequency:    5.5228107187
  - # 8
    frequency:    6.8101994423
  - # 9
    frequency:    9.5957079185
  - # 10
    frequency:    9.6817223340
  - # 11
    frequency:    9.6817223340
  - # 12
    frequency:   13.7421247114
  - # 13
    frequency:   14.0579427425
  - # 14
    frequency:   14.0579427425
  - # 15
    frequency:   19.1686200150

- q-position: [    0.0000000,    0.2666667,    0.0000000 ]
  band:
  - # 1
    frequency:    2.0160783057
  - # 2
    frequency:    2.0160783057
  - # 3
    frequency:    3.1227650966
  - # 4
    frequency:    3.1227650966
  - # 5
    frequency:    3.5926889553
  - # 6
    frequency:    5.5869852587
  - # 7
    frequency:    5.5869852587
  - # 8
    frequency:    6.9817329909
  - # 9
    frequency:    9.6175457506
  - # 10
    frequency:    9.7211795470
  - # 11
    frequency:    9.7211795470
  - # 12
    frequency:   13.7780903298
  - # 13
    frequency:   14.0215302842
  - # 14
    frequency:   14.0215302842
  - # 15
    frequency:   19.1558474744

- q-position: [    0.0000000,    0.2833333,    0.0000000 ]
  band:
  - # 1
    frequency:    2.1055954041
  - # 2
    frequency:    2.1055954041
  - # 3
    frequency:    3.1855311192
  - # 4
    frequency:    3.1855311192
  - # 5
    frequency:    3.7302568119
  - # 6
    frequency:    5.6542373227
  - # 7
    frequency:    5.6542373227
  - # 8
    frequency:    7.1482220497
  - # 9
    frequency:    9.6389222464
  - # 10
    frequency:    9.7620259681
  - # 11
    frequency:    9.7620259681
  - # 12
    frequency:   13.8097475601
  - # 13
    frequency:   13.9841777509
  - # 14
    frequency:   13.9841777509
  - # 15
    frequency:   19.1425401060

- q-position: [    0.0000000,    0.3000000,    0.0000000 ]
  band:
  - # 1
    frequency:    2.1928336488
  - # 2
    frequency:    2.1928336488
  - # 3
    frequency:    3.2352479211
  - # 4
    frequency:    3.2352479211
  - # 5
    frequency:    3.8562839241
  - # 6
    frequency:    5.7232714179
  - # 7
    frequency:    5.7232714179
  - # 8
    frequency:    7.3067894020
  - # 9
    frequency:    9.6596117240
  - # 10
    frequency:    9.8038583681
  - # 11
    frequency:    9.8038583681
  - # 12
    frequency:   13.8417507132
  - # 13
    frequency:   13.9462684028
  - # 14
    frequency:   13.9462684028
  - # 15
    frequency:   19.1291258867

- q-position: [    0.0000000,    0.3166667,    0.0000000 ]
  band:
  - # 1
    frequency:    2.2776345778
  - # 2
    frequency:    2.2776345778
  - # 3
    frequency:    3.2727322157
  - # 4
    frequency:    3.2727322157
  - # 5
    frequency:    3.9713129153
  - # 6
    frequency:    5.7926770741
  - # 7
    frequency:    5.7926770741
  - # 8
    frequency:    7.4545443557
  - # 9
    frequency:    9.6794031828
  - # 10
    frequency:    9.8461968073
  - # 11
    frequency:    9.8461968073
  - # 12
    frequency:   13.8795761587
  - # 13
    frequency:   13.9082367172
  - # 14
    frequency:   13.9082367172
  - # 15
    frequency:   19.1150049675

- q-position: [    0.0000000,    0.3333333,    0.0000000 ]
  band:
  - # 1
    frequency:    2.3598047779
  - # 2
    frequency:    2.3598047779
  - # 3
    frequency:    3.2989634022
  - # 4
    frequency:    3.2989634022
  - # 5
    frequency:    4.0762225967
  - # 6
    frequency:    5.8610180063
  - # 7
    frequency:    5.8610180063
  - # 8
    frequency:    7.5887953129
  - # 9
    frequency:    9.6981020255
  - # 10
    frequency:    9.8884831838
  - # 11
    frequency:    9.8884831838
  - # 12
    frequency:   13.8705683571
  - # 13
    frequency:   13.8705683571
  - # 14
    frequency:   13.9283571085
  - # 15
    frequency:   19.0990145462

- q-position: [    0.0000000,    0.3500000,    0.0000000 ]
  band:
  - # 1
    frequency:    2.4391111838
  - # 2
    frequency:    2.4391111838
  - # 3
    frequency:    3.3150048573
  - # 4
    frequency:    3.3150048573
  - # 5
    frequency:    4.1720017333
  - # 6
    frequency:    5.9269088666
  - # 7
    frequency:    5.9269088666
  - # 8
    frequency:    7.7073034712
  - # 9
    frequency:    9.7155312790
  - # 10
    frequency:    9.9300841146
  - # 11
    frequency:    9.9300841146
  - # 12
    frequency:   13.8337977100
  - # 13
    frequency:   13.8337977100
  - # 14
    frequency:   13.9917722930
  - # 15
    frequency:   19.0799401691

- q-position: [    0.0000000,    0.3666667,    0.0000000 ]
  band:
  - # 1
    frequency:    2.5152686758
  - # 2
    frequency:    2.5152686758
  - # 3
    frequency:    3.3219528439
  - # 4
    frequency:    3.3219528439
  - # 5
    frequency:    4.2594930067
  - # 6
    frequency:    5.9890718868
  - # 7
    frequency:    5.9890718868
  - # 8
    frequency:    7.8085314263
  - # 9
    frequency:    9.7315323335
  - # 10
    frequency:    9.9702991278
  - # 11
    frequency:    9.9702991278
  - # 12
    frequency:   13.7985022173
  - # 13
    frequency:   13.7985022173
  - # 14
    frequency:   14.0712421697
  - # 15
    frequency:   19.0569294350

- q-position: [    0.0000000,    0.3833333,    0.0000000 ]
  band:
  - # 1
    frequency:    2.5879163548
  - # 2
    frequency:    2.5879163548
  - # 3
    frequency:    3.3209177827
  - # 4
    frequency:    3.3209177827
  - # 5
    frequency:    4.3391777484
  - # 6
    frequency:    6.0463719858
  - # 7
    frequency:    6.0463719858
  - # 8
    frequency:    7.8918359185
  - # 9
    frequency:    9.7459652433
  - # 10
    frequency:   10.0083749583
  - # 11
    frequency:   10.0083749583
  - # 12
    frequency:   13.7652927048
  - # 13
    frequency:   13.7652927048
  - # 14
    frequency:   14.1655461501
  - # 15
    frequency:   19.0297576385

- q-position: [    0.0000000,    0.4000000,    0.0000000 ]
  band:
  - # 1
    frequency:    2.6565748629
  - # 2
    frequency:    2.6565748629
  - # 3
    frequency:    3.3130426156
  - # 4
    frequency:    3.3130426156
  - # 5
    frequency:    4.4110525417
  - # 6
    frequency:    6.0978331716
  - # 7
    frequency:    6.0978331716
  - # 8
    frequency:    7.9575608672
  - # 9
    frequency:    9.7587086503
  - # 10
    frequency:   10.0435263914
  - # 11
    frequency:   10.0435263914
  - # 12
    frequency:   13.7347990470
  - # 13
    frequency:   13.7347990470
  - # 14
    frequency:   14.2708492480
  - # 15
    frequency:   18.9989638646

- q-position: [    0.0000000,    0.4166667,    0.0000000 ]
  band:
  - # 1
    frequency:    2.7205697963
  - # 2
    frequency:    2.7205697963
  - # 3
    frequency:    3.2995685877
  - # 4
    frequency:    3.2995685877
  - # 5
    frequency:    4.4746181312
  - # 6
    frequency:    6.1426409952
  - # 7
    frequency:    6.1426409952
  - # 8
    frequency:    8.0070008342
  - # 9
    frequency:    9.7696594090
  - # 10
    frequency:   10.0749635763
  - # 11
    frequency:   10.0749635763
  - # 12
    frequency:   13.7076508241
  - # 13
    frequency:   13.7076508241
  - # 14
    frequency:   14.3810597033
  - # 15
    frequency:   18.9658952316

- q-position: [    0.0000000,    0.4333333,    0.0000000 ]
  band:
  - # 1
    frequency:    2.7788934978
  - # 2
    frequency:    2.7788934978
  - # 3
    frequency:    3.2819714900
  - # 4
    frequency:    3.2819714900
  - # 5
    frequency:    4.5289717354
  - # 6
    frequency:    6.1801360235
  - # 7
    frequency:    6.1801360235
  - # 8
    frequency:    8.0422238418
  - # 9
    frequency:    9.7787319991
  - # 10
    frequency:   10.1019249904
  - # 11
    frequency:   10.1019249904
  - # 12
    frequency:   13.6844532110
  - # 13
    frequency:   13.6844532110
  - # 14
    frequency:   14.4884344417
  - # 15
    frequency:   18.9326725097

- q-position: [    0.0000000,    0.4500000,    0.0000000 ]
  band:
  - # 1
    frequency:    2.8299620119
  - # 2
    frequency:    2.8299620119
  - # 3
    frequency:    3.2622077125
  - # 4
    frequency:    3.2622077125
  - # 5
    frequency:    4.5729735490
  - # 6
    frequency:    6.2098026056
  - # 7
    frequency:    6.2098026056
  - # 8
    frequency:    8.0657659035
  - # 9
    frequency:    9.7858578212
  - # 10
    frequency:   10.1237143260
  - # 11
    frequency:   10.1237143260
  - # 12
    frequency:   13.6657591510
  - # 13
    frequency:   13.6657591510
  - # 14
    frequency:   14.5843814820
  - # 15
    frequency:   18.9020470286

- q-position: [    0.0000000,    0.4666667,    0.0000000 ]
  band:
  - # 1
    frequency:    2.8712444246
  - # 2
    frequency:    2.8712444246
  - # 3
    frequency:    3.2430900563
  - # 4
    frequency:    3.2430900563
  - # 5
    frequency:    4.6054490546
  - # 6
    frequency:    6.2312562113
  - # 7
    frequency:    6.2312562113
  - # 8
    frequency:    8.0802357812
  - # 9
    frequency:    9.7909844664
  - # 10
    frequency:   10.1397385889
  - # 11
    frequency:   10.1397385889
  - # 12
    frequency:   13.6520398303
  - # 13
    frequency:   13.6520398303
  - # 14
    frequency:   14.6604356845
  - # 15
    frequency:   18.8770925028

- q-position: [    0.0000000,    0.4833333,    0.0000000 ]
  band:
  - # 1
    frequency:    2.8989781730
  - # 2
    frequency:    2.8989781730
  - # 3
    frequency:    3.2285778301
  - # 4
    frequency:    3.2285778301
  - # 5
    frequency:    4.6253890071
  - # 6
    frequency:    6.2442316664
  - # 7
    frequency:    6.2442316664
  - # 8
    frequency:    8.0878915592
  - # 9
    frequency:    9.7940750469
  - # 10
    frequency:   10.1495438589
  - # 11
    frequency:   10.1495438589
  - # 12
    frequency:   13.6436563460
  - # 13
    frequency:   13.6436563460
  - # 14
    frequency:   14.7093622259
  - # 15
    frequency:   18.8607049150

- q-position: [    0.0000000,    0.5000000,    0.0000000 ]
  band:
  - # 1
    frequency:    2.9089110736
  - # 2
    frequency:    2.9089110736
  - # 3
    frequency:    3.2230393155
  - # 4
    frequency:    3.2230393155
  - # 5
    frequency:    4.6321152006
  - # 6
    frequency:    6.2485738304
  - # 7
    frequency:    6.2485738304
  - # 8
    frequency:    8.0902631517
  - # 9
    frequency:    9.7951076607
  - # 10
    frequency:   10.1528447483
  - # 11
    frequency:   10.1528447483
  - # 12
    frequency:   13.6408359786
  - # 13
    frequency:   13.6408359786
  - # 14
    frequency:   14.7262520237
  - # 15
    frequency:   18.8549851683

- q-position: [    0.0166667,    0.5000000,    0.0000000 ]
  band:
  - # 1
    frequency:    2.9066670790
  - # 2
    frequency:    2.9107067611
  - # 3
    frequency:    3.2215877590
  - # 4
    frequency:    3.2230516644
  - # 5
    frequency:    4.6516281606
  - # 6
    frequency:    6.2483977240
  - # 7
    frequency:    6.2579653006
  - # 8
    frequency:    8.0864571921
  - # 9
    frequency:    9.7470261846
  - # 10
    frequency:   10.1532047380
  - # 11
    frequency:   10.1993382104
  - # 12
    frequency:   13.6279059473
  - # 13
    frequency:   13.6381089491
  - # 14
    frequency:   14.7269803424
  - # 15
    frequency:   18.8804192587

- q-position: [    0.0333333,    0.5000000,    0.0000000 ]
  band:
  - # 1
    frequency:    2.9047379596
  - # 2
    frequency:    2.9160377937
  - # 3
    frequency:    3.2175083977
  - # 4
    frequency:    3.2230882774
  - # 5
    frequency:    4.7087767319
  - # 6
    frequency:    6.2493274313
  - # 7
    frequency:    6.2860265123
  - # 8
    frequency:    8.0743893072
  - # 9
    frequency:    9.6426424813
  - # 10
    frequency:   10.1542806554
  - # 11
    frequency:   10.2997487133
  - # 12
    frequency:   13.5906097521
  - # 13
    frequency:   13.6299258637
  - # 14
    frequency:   14.7285598746
  - # 15
    frequency:   18.9542405462

- q-position: [    0.0500000,    0.5000000,    0.0000000 ]
  band:
  - # 1
    frequency:    2.9150748089
  - # 2
    frequency:    2.9247412976
  - # 3
    frequency:    3.2114418732
  - # 4
    frequency:    3.2231478909
  - # 5
    frequency:    4.8008109735
  - # 6
    frequency:    6.2552851286
  - # 7
    frequency:    6.3324210886
  - # 8
    frequency:    8.0521930166
  - # 9
    frequency:    9.5215944198
  - # 10
    frequency:   10.1560603948
  - # 11
    frequency:   10.4167181153
  - # 12
    frequency:   13.5328214093
  - # 13
    frequency:   13.6162809428
  - # 14
    frequency:   14.7293973376
  - # 15
    frequency:   19.0696619090

- q-position: [    0.0666667,    0.5000000,    0.0000000 ]
  band:
  - # 1
    frequency:    2.9365621801
  - # 2
    frequency:    2.9504448598
  - # 3
    frequency:    3.2041255163
  - # 4
    frequency:    3.2232285236
  - # 5
    frequency:    4.9266188376
  - # 6
    frequency:    6.2714788139
  - # 7
    frequency:    6.3965991095
  - # 8
    frequency:    8.0170498558
  - # 9
    frequency:    9.3991667657
  - # 10
    frequency:   10.1585239402
  - # 11
    frequency:   10.5384316459
  - # 12
    frequency:   13.4594272347
  - # 13
    frequency:   13.5971652440
  - # 14
    frequency:   14.7273947312
  - # 15
    frequency:   19.2172231946

- q-position: [    0.0833333,    0.5000000,    0.0000000 ]
  band:
  - # 1
    frequency:    2.9511744203
  - # 2
    frequency:    3.0169517863
  - # 3
    frequency:    3.1963702647
  - # 4
    frequency:    3.2233276453
  - # 5
    frequency:    5.0890249517
  - # 6
    frequency:    6.3029511312
  - # 7
    frequency:    6.4778130230
  - # 8
    frequency:    7.9656880341
  - # 9
    frequency:    9.2830379179
  - # 10
    frequency:   10.1616436057
  - # 11
    frequency:   10.6613067685
  - # 12
    frequency:   13.3750551388
  - # 13
    frequency:   13.5725676573
  - # 14
    frequency:   14.7203876613
  - # 15
    frequency:   19.3866763809

- q-position: [    0.1000000,    0.5000000,    0.0000000 ]
  band:
  - # 1
    frequency:    2.9682053621
  - # 2
    frequency:    3.1086928265
  - # 3
    frequency:    3.1897571458
  - # 4
    frequency:    3.2234423840
  - # 5
    frequency:    5.2947768276
  - # 6
    frequency:    6.3534114284
  - # 7
    frequency:    6.5751393752
  - # 8
    frequency:    7.8951718106
  - # 9
    frequency:    9.1783082362
  - # 10
    frequency:   10.1653843678
  - # 11
    frequency:   10.7840882046
  - # 12
    frequency:   13.2833956099
  - # 13
    frequency:   13.5424762225
  - # 14
    frequency:   14.7064301498
  - # 15
    frequency:   19.5685131776

- q-position: [    0.1166667,    0.5000000,    0.0000000 ]
  band:
  - # 1
    frequency:    2.9872594119
  - # 2
    frequency:    3.1745272527
  - # 3
    frequency:    3.2213005824
  - # 4
    frequency:    3.2235697446
  - # 5
    frequency:    5.5512502390
  - # 6
    frequency:    6.4248617617
  - # 7
    frequency:    6.6875054167
  - # 8
    frequency:    7.8038646243
  - # 9
    frequency:    9.0880926272
  - # 10
    frequency:   10.1697042884
  - # 11
    frequency:   10.9062073313
  - # 12
    frequency:   13.1871016073
  - # 13
    frequency:   13.5068797095
  - # 14
    frequency:   14.6839801369
  - # 15
    frequency:   19.7548869020

- q-position: [    0.1333333,    0.5000000,    0.0000000 ]
  band:
  - # 1
    frequency:    3.0079383833
  - # 2
    frequency:    3.1717864188
  - # 3
    frequency:    3.2237068146
  - # 4
    frequency:    3.3168574248
  - # 5
    frequency:    5.8601191725
  - # 6
    frequency:    6.5186000413
  - # 7
    frequency:    6.8137191093
  - # 8
    frequency:    7.6921285063
  - # 9
    frequency:    9.0132969482
  - # 10
    frequency:   10.1745550223
  - # 11
    frequency:   11.0272449468
  - # 12
    frequency:   13.0880281919
  - # 13
    frequency:   13.4657694047
  - # 14
    frequency:   14.6520458147
  - # 15
    frequency:   19.9399671874

- q-position: [    0.1500000,    0.5000000,    0.0000000 ]
  band:
  - # 1
    frequency:    3.0298569669
  - # 2
    frequency:    3.1676282081
  - # 3
    frequency:    3.2238509333
  - # 4
    frequency:    3.3973440117
  - # 5
    frequency:    6.2087376339
  - # 6
    frequency:    6.6400871798
  - # 7
    frequency:    6.9525006684
  - # 8
    frequency:    7.5622869959
  - # 9
    frequency:    8.9528115742
  - # 10
    frequency:   10.1798824011
  - # 11
    frequency:   11.1467452189
  - # 12
    frequency:   12.9875898263
  - # 13
    frequency:   13.4191410642
  - # 14
    frequency:   14.6103011225
  - # 15
    frequency:   20.1198825552

- q-position: [    0.1666667,    0.5000000,    0.0000000 ]
  band:
  - # 1
    frequency:    3.0526529982
  - # 2
    frequency:    3.1649844949
  - # 3
    frequency:    3.2239998092
  - # 4
    frequency:    3.4555324909
  - # 5
    frequency:    6.5449437291
  - # 6
    frequency:    6.8250121695
  - # 7
    frequency:    7.1025136370
  - # 8
    frequency:    7.4178907415
  - # 9
    frequency:    8.9042929476
  - # 10
    frequency:   10.1856270862
  - # 11
    frequency:   11.2641720425
  - # 12
    frequency:   12.8871100978
  - # 13
    frequency:   13.3669970225
  - # 14
    frequency:   14.5591451894
  - # 15
    frequency:   20.2924115267

- q-position: [    0.1833333,    0.5000000,    0.0000000 ]
  band:
  - # 1
    frequency:    3.0759930830
  - # 2
    frequency:    3.1641408653
  - # 3
    frequency:    3.2241515763
  - # 4
    frequency:    3.4924633525
  - # 5
    frequency:    6.7680507090
  - # 6
    frequency:    7.1526235777
  - # 7
    frequency:    7.2623936412
  - # 8
    frequency:    7.2629175131
  - # 9
    frequency:    8.8650758470
  - # 10
    frequency:   10.1917252781
  - # 11
    frequency:   11.3789351874
  - # 12
    frequency:   12.7881176963
  - # 13
    frequency:   13.3093484932
  - # 14
    frequency:   14.4996760754
  - # 15
    frequency:   20.4565518866

- q-position: [    0.2000000,    0.5000000,    0.0000000 ]
  band:
  - # 1
    frequency:    3.0995746167
  - # 2
    frequency:    3.1650067178
  - # 3
    frequency:    3.2243047893
  - # 4
    frequency:    3.5119479472
  - # 5
    frequency:    6.9241441447
  - # 6
    frequency:    7.1007547774
  - # 7
    frequency:    7.4307733431
  - # 8
    frequency:    7.5553302616
  - # 9
    frequency:    8.8327950770
  - # 10
    frequency:   10.1981094692
  - # 11
    frequency:   11.4904543945
  - # 12
    frequency:   12.6925767937
  - # 13
    frequency:   13.2462181536
  - # 14
    frequency:   14.4335641283
  - # 15
    frequency:   20.6120665179

- q-position: [    0.2166667,    0.5000000,    0.0000000 ]
  band:
  - # 1
    frequency:    3.1231253444
  - # 2
    frequency:    3.1673099693
  - # 3
    frequency:    3.2244583670
  - # 4
    frequency:    3.5182202816
  - # 5
    frequency:    6.9318589889
  - # 6
    frequency:    7.0690168462
  - # 7
    frequency:    7.6063025618
  - # 8
    frequency:    7.9605293174
  - # 9
    frequency:    8.8056432630
  - # 10
    frequency:   10.2047092283
  - # 11
    frequency:   11.5982431464
  - # 12
    frequency:   12.6030364943
  - # 13
    frequency:   13.1776431849
  - # 14
    frequency:   14.3628352220
  - # 15
    frequency:   20.7590796614

- q-position: [    0.2333333,    0.5000000,    0.0000000 ]
  band:
  - # 1
    frequency:    3.1464014875
  - # 2
    frequency:    3.1707016998
  - # 3
    frequency:    3.2246114954
  - # 4
    frequency:    3.5149542545
  - # 5
    frequency:    6.7632994301
  - # 6
    frequency:    7.2068885332
  - # 7
    frequency:    7.7876629625
  - # 8
    frequency:    8.3433093616
  - # 9
    frequency:    8.7824165218
  - # 10
    frequency:   10.2114520022
  - # 11
    frequency:   11.7019965329
  - # 12
    frequency:   12.5226612305
  - # 13
    frequency:   13.1036790371
  - # 14
    frequency:   14.2895999595
  - # 15
    frequency:   20.8977746258

- q-position: [    0.2500000,    0.5000000,    0.0000000 ]
  band:
  - # 1
    frequency:    3.1691852141
  - # 2