1080
3

   1
    0.01000000000000     0.00000000000000     0.00000000000000
    -0.08354066445129    -0.00000000000022    -0.00000000000019
     0.01105111976915    -0.00000000000009    -0.00000000000007
     0.00080648379785    -0.00000000000008    -0.00000000000006
     0.00044044396333    -0.00000000000008    -0.00000000000005
     0.00080334202249    -0.00000000000008    -0.00000000000006
     0.01094000257637    -0.00000000000010    -0.00000000000008
    -0.00424064214468    -0.00001983299093    -0.00000000000007
     0.00137066060265     0.00212444904922    -0.00000000000006
     0.00045423975073     0.00026630522553    -0.00000000000008
     0.00033532420049     0.00000024124431    -0.00000000000008
     0.00045346816768    -0.00026508857638    -0.00000000000006
     0.00136669884738    -0.00211427129553    -0.00000000000009
    -0.00037344961562    -0.00000061630245    -0.00000000000008
    -0.00005243103513     0.00026577921764    -0.00000000000008
     0.00015450048160     0.00013707756303    -0.00000000000004
     0.00017811676306     0.00000014595236    -0.00000000000008
     0.00015464145173    -0.00013667504304    -0.00000000000007
    -0.00005159269826    -0.00026561096375    -0.00000000000005
    -0.00016848783575     0.00000000000005    -0.00000000000005
    -0.00005410576435     0.00000000000003    -0.00000000000008
     0.00007829216399     0.00000000000003    -0.00000000000007
     0.00012018244167     0.00000000000014     0.00000000000006
     0.00007849713620     0.00000000000003    -0.00000000000007
    -0.00005373897441     0.00000000000003    -0.00000000000005
    -0.00037344961562     0.00000061630251    -0.00000000000006
    -0.00005243103513    -0.00026577921764    -0.00000000000005
     0.00015450048158    -0.00013707756302    -0.00000000000006
     0.00017811676307    -0.00000014595232    -0.00000000000006
     0.00015464145174     0.00013667504303    -0.00000000000003
    -0.00005159269827     0.00026561096372    -0.00000000000005
    -0.00424064214469     0.00001983299085    -0.00000000000008
     0.00137066060264    -0.00212444904930    -0.00000000000008
     0.00045423975072    -0.00026630522559    -0.00000000000004
     0.00033532420049    -0.00000024124440    -0.00000000000005
     0.00045346816766     0.00026508857631    -0.00000000000006
     0.00136669884742     0.00211427129549    -0.00000000000005
    -0.00424064214470    -0.00000000000011    -0.00001983299086
     0.00137066060262    -0.00000000000009     0.00212444904926
     0.00045423975073    -0.00000000000010     0.00026630522558
     0.00033532420047    -0.00000000000011     0.00000024124436
     0.00045346816768    -0.00000000000008    -0.00026508857634
     0.00136669884738    -0.00000000000011    -0.00211427129546
    -0.00109400007600    -0.00000443342883    -0.00000443342877
     0.00013574670061     0.00056407881845     0.00056407881851
     0.00028070276067     0.00016232283750     0.00016232283756
     0.00026108605036     0.00000015795437     0.00000015795442
     0.00028068321772    -0.00016175204842    -0.00016175204835
     0.00013737729770    -0.00056290954673    -0.00056290954667
    -0.00026206674716    -0.00000040387370    -0.00000016045676
    -0.00005216943892     0.00016201331373     0.00010179911421
     0.00011253878073     0.00009407813220     0.00005792289398
     0.00014617104043     0.00000010672925     0.00000007017425
     0.00011274184373    -0.00009384571838    -0.00005776639303
    -0.00005155578533    -0.00016206020665    -0.00010175695946
    -0.00013627216232     0.00000000000001    -0.00000003992735
    -0.00004801637161     0.00000000000004     0.00003781719073
     0.00006415849050     0.00000000000003     0.00002811895576
     0.00010277322702     0.00000000000006     0.00000004020905
     0.00006435486542     0.00000000000004    -0.00002805407149
    -0.00004770207541     0.00000000000003    -0.00003782624687
    -0.00026206674715     0.00000040387371    -0.00000016045679
    -0.00005216943893    -0.00016201331371     0.00010179911419
     0.00011253878075    -0.00009407813222     0.00005792289395
     0.00014617104044    -0.00000010672927     0.00000007017423
     0.00011274184374     0.00009384571839    -0.00005776639303
    -0.00005155578534     0.00016206020664    -0.00010175695952
    -0.00109400007602     0.00000443342873    -0.00000443342875
     0.00013574670061    -0.00056407881849     0.00056407881850
     0.00028070276066    -0.00016232283754     0.00016232283756
     0.00026108605035    -0.00000015795443     0.00000015795441
     0.00028068321769     0.00016175204837    -0.00016175204839
     0.00013737729771     0.00056290954671    -0.00056290954665
    -0.00037344961563    -0.00000000000009    -0.00000061630246
    -0.00005243103512    -0.00000000000009     0.00026577921764
     0.00015450048158    -0.00000000000006     0.00013707756302
     0.00017811676306    -0.00000000000008     0.00000014595236
     0.00015464145172    -0.00000000000008    -0.00013667504305
    -0.00005159269826    -0.00000000000008    -0.00026561096373
    -0.00026206674716    -0.00000016045681    -0.00000040387371
    -0.00005216943890     0.00010179911416     0.00016201331374
     0.00011253878073     0.00005792289394     0.00009407813219
     0.00014617104043     0.00000007017419     0.00000010672924
     0.00011274184375    -0.00005776639308    -0.00009384571837
    -0.00005155578534    -0.00010175695951    -0.00016206020667
    -0.00012597790057    -0.00000012230520    -0.00000012230522
    -0.00004413664572     0.00005781844231     0.00005781844230
     0.00005942683221     0.00004076701650     0.00004076701648
     0.00009463787617     0.00000004675870     0.00000004675867
     0.00005960190479    -0.00004067785508    -0.00004067785507
    -0.00004383082771    -0.00005787062845    -0.00005787062848
    -0.00008445658914     0.00000000000003    -0.00000004065410
    -0.00003586258937     0.00000000000003     0.00002807464396
     0.00004170781244     0.00000000000005     0.00002319819212
     0.00007282702515     0.00000000000004     0.00000003006329
     0.00004186663907     0.00000000000003    -0.00002315414518
    -0.00003566117430     0.00000000000004    -0.00002809841489
    -0.00012597790058     0.00000012230521    -0.00000012230524
    -0.00004413664574    -0.00005781844231     0.00005781844233
     0.00005942683219    -0.00004076701646     0.00004076701649
     0.00009463787615    -0.00000004675871     0.00000004675867
     0.00005960190474     0.00004067785505    -0.00004067785507
    -0.00004383082774     0.00005787062846    -0.00005787062846
    -0.00026206674715     0.00000016045678    -0.00000040387369
    -0.00005216943890    -0.00010179911418     0.00016201331370
     0.00011253878073    -0.00005792289393     0.00009407813219
     0.00014617104044    -0.00000007017422     0.00000010672926
     0.00011274184375     0.00005776639303    -0.00009384571839
    -0.00005155578534     0.00010175695950    -0.00016206020669
    -0.00016848783575    -0.00000000000010     0.00000000000001
    -0.00005410576434    -0.00000000000011    -0.00000000000001
     0.00007829216398    -0.00000000000009    -0.00000000000000
     0.00012018244167     0.00000000000003     0.00000000000011
     0.00007849713619    -0.00000000000010     0.00000000000000
    -0.00005373897442    -0.00000000000010    -0.00000000000000
    -0.00013627216230    -0.00000003992741    -0.00000000000001
    -0.00004801637163     0.00003781719065     0.00000000000002
     0.00006415849049     0.00002811895568    -0.00000000000001
     0.00010277322702     0.00000004020898     0.00000000000002
     0.00006435486542    -0.00002805407156     0.00000000000001
    -0.00004770207540    -0.00003782624694     0.00000000000000
    -0.00008445658914    -0.00000004065409     0.00000000000000
    -0.00003586258937     0.00002807464395    -0.00000000000000
     0.00004170781243     0.00002319819213     0.00000000000002
     0.00007282702515     0.00000003006329     0.00000000000003
     0.00004186663907    -0.00002315414517    -0.00000000000001
    -0.00003566117431    -0.00002809841489    -0.00000000000002
    -0.00006495809882     0.00000000000014     0.00000000000012
    -0.00002949921259     0.00000000000006     0.00000000000003
     0.00003215731529     0.00000000000004     0.00000000000003
     0.00005902562327    -0.00000000000011    -0.00000000000012
     0.00003227394597     0.00000000000002    -0.00000000000001
    -0.00002935281884     0.00000000000002    -0.00000000000002
    -0.00008445658916     0.00000004065412     0.00000000000001
    -0.00003586258936    -0.00002807464399     0.00000000000002
     0.00004170781242    -0.00002319819217    -0.00000000000001
     0.00007282702513    -0.00000003006336    -0.00000000000002
     0.00004186663908     0.00002315414514     0.00000000000001
    -0.00003566117436     0.00002809841484    -0.00000000000001
    -0.00013627216229     0.00000003992732     0.00000000000000
    -0.00004801637161    -0.00003781719072     0.00000000000001
     0.00006415849050    -0.00002811895575    -0.00000000000002
     0.00010277322698    -0.00000004020900    -0.00000000000002
     0.00006435486539     0.00002805407146    -0.00000000000001
    -0.00004770207537     0.00003782624692     0.00000000000001
    -0.00037344961561    -0.00000000000007     0.00000061630245
    -0.00005243103514    -0.00000000000008    -0.00026577921768
     0.00015450048156    -0.00000000000007    -0.00013707756307
     0.00017811676307    -0.00000000000008    -0.00000014595237
     0.00015464145173    -0.00000000000005     0.00013667504298
    -0.00005159269829    -0.00000000000009     0.00026561096366
    -0.00026206674714    -0.00000016045684     0.00000040387367
    -0.00005216943891     0.00010179911414    -0.00016201331375
     0.00011253878076     0.00005792289390    -0.00009407813226
     0.00014617104044     0.00000007017420    -0.00000010672931
     0.00011274184374    -0.00005776639309     0.00009384571834
    -0.00005155578532    -0.00010175695955     0.00016206020661
    -0.00012597790058    -0.00000012230523     0.00000012230516
    -0.00004413664575     0.00005781844234    -0.00005781844237
     0.00005942683223     0.00004076701651    -0.00004076701649
     0.00009463787615     0.00000004675868    -0.00000004675876
     0.00005960190474    -0.00004067785506     0.00004067785500
    -0.00004383082772    -0.00005787062844     0.00005787062843
    -0.00008445658914     0.00000000000003     0.00000004065408
    -0.00003586258935     0.00000000000003    -0.00002807464403
     0.00004170781243     0.00000000000003    -0.00002319819222
     0.00007282702514     0.00000000000003    -0.00000003006342
     0.00004186663909     0.00000000000003     0.00002315414509
    -0.00003566117437     0.00000000000003     0.00002809841479
    -0.00012597790056     0.00000012230522     0.00000012230517
    -0.00004413664574    -0.00005781844232    -0.00005781844236
     0.00005942683222    -0.00004076701650    -0.00004076701656
     0.00009463787615    -0.00000004675869    -0.00000004675875
     0.00005960190476     0.00004067785508     0.00004067785503
    -0.00004383082774     0.00005787062844     0.00005787062839
    -0.00026206674715     0.00000016045675     0.00000040387363
    -0.00005216943892    -0.00010179911416    -0.00016201331376
     0.00011253878075    -0.00005792289395    -0.00009407813223
     0.00014617104044    -0.00000007017429    -0.00000010672934
     0.00011274184373     0.00005776639304     0.00009384571832
    -0.00005155578532     0.00010175695952     0.00016206020661
    -0.00424064214468    -0.00000000000008     0.00001983299085
     0.00137066060265    -0.00000000000009    -0.00212444904929
     0.00045423975074    -0.00000000000007    -0.00026630522556
     0.00033532420051    -0.00000000000006    -0.00000024124438
     0.00045346816765    -0.00000000000009     0.00026508857630
     0.00136669884741    -0.00000000000010     0.00211427129550
    -0.00109400007600    -0.00000443342881     0.00000443342874
     0.00013574670062     0.00056407881846    -0.00056407881845
     0.00028070276063     0.00016232283751    -0.00016232283752
     0.00026108605035     0.00000015795436    -0.00000015795441
     0.00028068321771    -0.00016175204841     0.00016175204840
     0.00013737729769    -0.00056290954671     0.00056290954673
    -0.00026206674714    -0.00000040387369     0.00000016045680
    -0.00005216943891     0.00016201331369    -0.00010179911416
     0.00011253878073     0.00009407813220    -0.00005792289393
     0.00014617104043     0.00000010672927    -0.00000007017421
     0.00011274184374    -0.00009384571841     0.00005776639305
    -0.00005155578534    -0.00016206020667     0.00010175695951
    -0.00013627216227     0.00000000000005     0.00000003992734
    -0.00004801637162     0.00000000000002    -0.00003781719072
     0.00006415849052     0.00000000000003    -0.00002811895573
     0.00010277322696    -0.00000000000000    -0.00000004020901
     0.00006435486541     0.00000000000002     0.00002805407145
    -0.00004770207536     0.00000000000004     0.00003782624691
    -0.00026206674715     0.00000040387368     0.00000016045675
    -0.00005216943892    -0.00016201331372    -0.00010179911416
     0.00011253878072    -0.00009407813221    -0.00005792289396
     0.00014617104043    -0.00000010672928    -0.00000007017428
     0.00011274184373     0.00009384571837     0.00005776639303
    -0.00005155578534     0.00016206020667     0.00010175695950
    -0.00109400007600     0.00000443342877     0.00000443342879
     0.00013574670064    -0.00056407881849    -0.00056407881846
     0.00028070276064    -0.00016232283754    -0.00016232283754
     0.00026108605036    -0.00000015795437    -0.00000015795439
     0.00028068321773     0.00016175204838     0.00016175204838
     0.00013737729772     0.00056290954672     0.00056290954671
     0.00071394978773     0.01369461553053     0.01369461553060
     0.00215491693733     0.00084374069598     0.00084374069604
     0.00105805915497     0.00011234628039     0.00011234628048
     0.00105690252238    -0.00011165859887    -0.00011165859883
     0.00215185571926    -0.00083895012307    -0.00083895012300
     0.00079195833152    -0.01363025942207    -0.01363025942202
    -0.00086078345472     0.00170730778249     0.00029619130841
     0.00034330863164     0.00077199598026     0.00024508612637
     0.00051705429872     0.00016801087037     0.00005492992968
     0.00051708654986    -0.00016711628153    -0.00005463053795
     0.00034452611198    -0.00076981052871    -0.00024433188618
    -0.00085709390120    -0.00170919192284    -0.00029642487047
    -0.00028917640548     0.00022527506559     0.00004076279835
     0.00004687042062     0.00020891768911     0.00005652683412
     0.00024171873890     0.00006165803610     0.00002094801659
     0.00024194178383    -0.00006135661217    -0.00002084469903
     0.00004757121667    -0.00020855588790    -0.00005645312570
    -0.00028861524936    -0.00022584007086    -0.00004083974811
    -0.00028917640537    -0.00022527506546     0.00004076279840
     0.00004687042063    -0.00020891768909     0.00005652683419
     0.00024171873890    -0.00006165803598     0.00002094801672
     0.00024194178377     0.00006135661224    -0.00002084469906
     0.00004757121665     0.00020855588797    -0.00005645312567
    -0.00028861524931     0.00022584007095    -0.00004083974810
    -0.00086078345467    -0.00170730778228     0.00029619130846
     0.00034330863165    -0.00077199597996     0.00024508612638
     0.00051705429875    -0.00016801087021     0.00005492992972
     0.00051708654989     0.00016711628169    -0.00005463053794
     0.00034452611189     0.00076981052893    -0.00024433188623
    -0.00085709390115     0.00170919192300    -0.00029642487051
     0.00071394978778    -0.01369461553010     0.01369461553063
     0.00215491693729    -0.00084374069558     0.00084374069612
     0.00105805915498    -0.00011234628002     0.00011234628052
     0.00105690252232     0.00011165859939    -0.00011165859882
     0.00215185571925     0.00083895012355    -0.00083895012301
     0.00079195833153     0.01363025942258    -0.01363025942195
    -0.00086078345474     0.00029619130831     0.00170730778253
     0.00034330863158     0.00024508612629     0.00077199598025
     0.00051705429874     0.00005492992960     0.00016801087046
     0.00051708654989    -0.00005463053800    -0.00016711628145
     0.00034452611189    -0.00024433188630    -0.00076981052878
    -0.00085709390116    -0.00029642487053    -0.00170919192274
    -0.00040815729042     0.00029323243412     0.00029323243415
     0.00009852675138     0.00029053182456     0.00029053182463
     0.00030946775747     0.00008729553510     0.00008729553517
     0.00030968824923    -0.00008687296303    -0.00008687296300
     0.00009948567284    -0.00029006725930    -0.00029006725925
    -0.00040683830759    -0.00029419050847    -0.00029419050843
    -0.00019432894357     0.00007540863408     0.00006428783761
     0.00002082181084     0.00009893188291     0.00009410476092
     0.00017260702553     0.00003474403244     0.00003688689418
     0.00017279385793    -0.00003458138770    -0.00003670593926
     0.00002135470336    -0.00009884221480    -0.00009401756770
    -0.00019396055075    -0.00007573500893    -0.00006448736829
    -0.00019432894347    -0.00007540863407     0.00006428783760
     0.00002082181085    -0.00009893188299     0.00009410476089
     0.00017260702549    -0.00003474403240     0.00003688689423
     0.00017279385794     0.00003458138770    -0.00003670593923
     0.00002135470326     0.00009884221474    -0.00009401756778
    -0.00019396055070     0.00007573500886    -0.00006448736830
    -0.00040815729045    -0.00029323243397     0.00029323243410
     0.00009852675141    -0.00029053182392     0.00029053182464
     0.00030946775750    -0.00008729553496     0.00008729553524
     0.00030968824920     0.00008687296308    -0.00008687296298
     0.00009948567277     0.00029006725991    -0.00029006725926
    -0.00040683830756     0.00029419050862    -0.00029419050843
    -0.00086078345462    -0.00029619130791     0.00170730778255
     0.00034330863156    -0.00024508612599     0.00077199598022
     0.00051705429869    -0.00005492992926     0.00016801087043
     0.00051708654986     0.00005463053849    -0.00016711628148
     0.00034452611192     0.00024433188661    -0.00076981052875
    -0.00085709390119     0.00029642487103    -0.00170919192282
    -0.00028917640547     0.00004076279823     0.00022527506553
     0.00004687042064     0.00005652683402     0.00020891768908
     0.00024171873891     0.00002094801650     0.00006165803601
     0.00024194178378    -0.00002084469913    -0.00006135661228
     0.00004757121668    -0.00005645312579    -0.00020855588795
    -0.00028861524939    -0.00004083974819    -0.00022584007096
    -0.00019432894358     0.00006428783755     0.00007540863403
     0.00002082181090     0.00009410476090     0.00009893188281
     0.00017260702551     0.00003688689409     0.00003474403239
     0.00017279385790    -0.00003670593934    -0.00003458138775
     0.00002135470339    -0.00009401756774    -0.00009884221491
    -0.00019396055075    -0.00006448736835    -0.00007573500897
    -0.00012410188348     0.00002398920663     0.00002398920652
     0.00000634614466     0.00003906275775     0.00003906275771
     0.00011746427714     0.00001606809076     0.00001606809066
     0.00011760282735    -0.00001599218776    -0.00001599218784
     0.00000669528628    -0.00003904533892    -0.00003904533899
    -0.00012389048443    -0.00002408905728    -0.00002408905735
    -0.00012410188334    -0.00002398920660     0.00002398920651
     0.00000634614472    -0.00003906275777     0.00003906275767
     0.00011746427750    -0.00001606809096     0.00001606809105
     0.00011760282720     0.00001599218779    -0.00001599218794
     0.00000669528624     0.00003904533890    -0.00003904533899
    -0.00012389048457     0.00002408905738    -0.00002408905754
    -0.00019432894353    -0.00006428783733     0.00007540863404
     0.00002082181095    -0.00009410476066     0.00009893188283
     0.00017260702550    -0.00003688689405     0.00003474403235
     0.00017279385790     0.00003670593941    -0.00003458138774
     0.00002135470334     0.00009401756799    -0.00009884221489
    -0.00019396055073     0.00006448736847    -0.00007573500895
    -0.00028917640539    -0.00004076279788     0.00022527506550
     0.00004687042061    -0.00005652683367     0.00020891768904
     0.00024171873902    -0.00002094801608     0.00006165803615
     0.00024194178375     0.00002084469956    -0.00006135661231
     0.00004757121662     0.00005645312621    -0.00020855588797
    -0.00028861524934     0.00004083974868    -0.00022584007098
    -0.00028917640542     0.00004076279829    -0.00022527506563
     0.00004687042063     0.00005652683411    -0.00020891768916
     0.00024171873886     0.00002094801662    -0.00006165803615
     0.00024194178380    -0.00002084469911     0.00006135661210
     0.00004757121663    -0.00005645312576     0.00020855588783
    -0.00028861524931    -0.00004083974815     0.00022584007079
    -0.00019432894349     0.00006428783755    -0.00007540863413
     0.00002082181088     0.00009410476090    -0.00009893188310
     0.00017260702548     0.00003688689418    -0.00003474403248
     0.00017279385791    -0.00003670593928     0.00003458138762
     0.00002135470330    -0.00009401756779     0.00009884221462
    -0.00019396055073    -0.00006448736835     0.00007573500878
    -0.00012410188335     0.00002398920659    -0.00002398920668
     0.00000634614474     0.00003906275775    -0.00003906275780
     0.00011746427750     0.00001606809114    -0.00001606809106
     0.00011760282722    -0.00001599218784     0.00001599218771
     0.00000669528627    -0.00003904533886     0.00003904533884
    -0.00012389048456    -0.00002408905745     0.00002408905730
    -0.00012410188332    -0.00002398920656    -0.00002398920669
     0.00000634614478    -0.00003906275774    -0.00003906275779
     0.00011746427741    -0.00001606809107    -0.00001606809118
     0.00011760282734     0.00001599218794     0.00001599218785
     0.00000669528625     0.00003904533890     0.00003904533881
    -0.00012389048452     0.00002408905747     0.00002408905736
    -0.00019432894350    -0.00006428783738    -0.00007540863416
     0.00002082181089    -0.00009410476074    -0.00009893188312
     0.00017260702555    -0.00003688689406    -0.00003474403249
     0.00017279385788     0.00003670593942     0.00003458138757
     0.00002135470328     0.00009401756793     0.00009884221473
    -0.00019396055071     0.00006448736844     0.00007573500878
    -0.00028917640536    -0.00004076279780    -0.00022527506569
     0.00004687042060    -0.00005652683365    -0.00020891768922
     0.00024171873883    -0.00002094801620    -0.00006165803619
     0.00024194178382     0.00002084469960     0.00006135661214
     0.00004757121658     0.00005645312624     0.00020855588780
    -0.00028861524931     0.00004083974871     0.00022584007083
    -0.00086078345468     0.00029619130837    -0.00170730778226
     0.00034330863154     0.00024508612626    -0.00077199598007
     0.00051705429875     0.00005492992965    -0.00016801087019
     0.00051708654986    -0.00005463053802     0.00016711628166
     0.00034452611191    -0.00024433188630     0.00076981052893
    -0.00085709390115    -0.00029642487057     0.00170919192301
    -0.00040815729045     0.00029323243407    -0.00029323243398
     0.00009852675141     0.00029053182459    -0.00029053182384
     0.00030946775744     0.00008729553512    -0.00008729553502
     0.00030968824922    -0.00008687296303     0.00008687296309
     0.00009948567281    -0.00029006725931     0.00029006725998
    -0.00040683830753    -0.00029419050847     0.00029419050862
    -0.00019432894352     0.00007540863411    -0.00006428783736
     0.00002082181087     0.00009893188290    -0.00009410476077
     0.00017260702549     0.00003474403243    -0.00003688689407
     0.00017279385791    -0.00003458138763     0.00003670593943
     0.00002135470332    -0.00009884221479     0.00009401756795
    -0.00019396055074    -0.00007573500884     0.00006448736848
    -0.00019432894349    -0.00007540863408    -0.00006428783740
     0.00002082181085    -0.00009893188298    -0.00009410476081
     0.00017260702553    -0.00003474403241    -0.00003688689406
     0.00017279385787     0.00003458138765     0.00003670593940
     0.00002135470324     0.00009884221475     0.00009401756791
    -0.00019396055072     0.00007573500886     0.00006448736841
    -0.00040815729045    -0.00029323243394    -0.00029323243395
     0.00009852675140    -0.00029053182394    -0.00029053182391
     0.00030946775749    -0.00008729553499    -0.00008729553498
     0.00030968824920     0.00008687296307     0.00008687296312
     0.00009948567268     0.00029006725983     0.00029006725984
    -0.00040683830750     0.00029419050862     0.00029419050864
    -0.00086078345465    -0.00029619130790    -0.00170730778228
     0.00034330863156    -0.00024508612592    -0.00077199598003
     0.00051705429876    -0.00005492992924    -0.00016801087022
     0.00051708654983     0.00005463053848     0.00016711628161
     0.00034452611191     0.00024433188666     0.00076981052897
    -0.00085709390116     0.00029642487106     0.00170919192299
     0.00071394978778     0.01369461553058    -0.01369461553003
     0.00215491693733     0.00084374069609    -0.00084374069548
     0.00105805915495     0.00011234628045    -0.00011234627998
     0.00105690252233    -0.00011165859885     0.00011165859944
     0.00215185571923    -0.00083895012307     0.00083895012360
     0.00079195833152    -0.01363025942200     0.01363025942262
    -0.00086078345461     0.00170730778249    -0.00029619130784
     0.00034330863157     0.00077199598019    -0.00024508612597
     0.00051705429871     0.00016801087038    -0.00005492992915
     0.00051708654983    -0.00016711628155     0.00005463053857
     0.00034452611194    -0.00076981052878     0.00024433188665
    -0.00085709390119    -0.00170919192288     0.00029642487112
    -0.00028917640542     0.00022527506557    -0.00004076279783
     0.00004687042062     0.00020891768909    -0.00005652683359
     0.00024171873901     0.00006165803620    -0.00002094801602
     0.00024194178377    -0.00006135661225     0.00002084469959
     0.00004757121664    -0.00020855588787     0.00005645312629
    -0.00028861524930    -0.00022584007090     0.00004083974875
    -0.00028917640536    -0.00022527506552    -0.00004076279777
     0.00004687042060    -0.00020891768913    -0.00005652683355
     0.00024171873883    -0.00006165803604    -0.00002094801616
     0.00024194178380     0.00006135661226     0.00002084469966
     0.00004757121660     0.00020855588792     0.00005645312632
    -0.00028861524929     0.00022584007095     0.00004083974879
    -0.00086078345468    -0.00170730778231    -0.00029619130785
     0.00034330863156    -0.00077199598000    -0.00024508612592
     0.00051705429877    -0.00016801087023    -0.00005492992915
     0.00051708654984     0.00016711628164     0.00005463053858
     0.00034452611194     0.00076981052898     0.00024433188677
    -0.00085709390113     0.00170919192298     0.00029642487116
     0.00071394978785    -0.01369461553010    -0.01369461553004
     0.00215491693725    -0.00084374069558    -0.00084374069549
     0.00105805915495    -0.00011234627996    -0.00011234627990
     0.00105690252233     0.00011165859942     0.00011165859949
     0.00215185571922     0.00083895012356     0.00083895012364
     0.00079195833146     0.01363025942250     0.01363025942257
     0.00364642022119    -0.00134335698680    -0.00000000000037
    -0.00090021583954    -0.00049660495854    -0.00000000000036
    -0.00032288147733    -0.00004725255167    -0.00000000000034
    -0.00032247773399     0.00004694008152    -0.00000000000037
    -0.00089646703004     0.00049254353273    -0.00000000000034
     0.00341564683805     0.00155723901032    -0.00000000000037
     0.00038045346575    -0.00045118474205    -0.00000000000036
    -0.00020267760804    -0.00031363946227    -0.00000000000035
    -0.00017453448201    -0.00006278052595    -0.00000000000035
    -0.00017448005904     0.00006243714849    -0.00000000000037
    -0.00020262927536     0.00031269281784    -0.00000000000036
     0.00037817339279     0.00045132162884    -0.00000000000038
     0.00010793535966    -0.00005538550969    -0.00000000000034
    -0.00002252987285    -0.00006368708457    -0.00000000000035
    -0.00008472558866    -0.00002088068511    -0.00000000000027
    -0.00008478760303     0.00002078023498    -0.00000000000035
    -0.00002276568331     0.00006359641267    -0.00000000000033
     0.00010770134164     0.00005552936560    -0.00000000000037
     0.00010793535967     0.00005538550964    -0.00000000000038
    -0.00002252987285     0.00006368708452    -0.00000000000038
    -0.00008472558859     0.00002088068500    -0.00000000000035
    -0.00008478760299    -0.00002078023498    -0.00000000000041
    -0.00002276568331    -0.00006359641272    -0.00000000000038
     0.00010770134163    -0.00005552936565    -0.00000000000041
     0.00038045346574     0.00045118474204    -0.00000000000035
    -0.00020267760804     0.00031363946232    -0.00000000000037
    -0.00017453448201     0.00006278052596    -0.00000000000034
    -0.00017448005904    -0.00006243714850    -0.00000000000039
    -0.00020262927537    -0.00031269281780    -0.00000000000037
     0.00037817339278    -0.00045132162884    -0.00000000000037
     0.00364642022123     0.00134335698682    -0.00000000000037
    -0.00090021583954     0.00049660495858    -0.00000000000038
    -0.00032288147733     0.00004725255170    -0.00000000000037
    -0.00032247773400    -0.00004694008148    -0.00000000000040
    -0.00089646703004    -0.00049254353270    -0.00000000000036