nqpoint: 151    
natom:   5      
reciprocal_lattice:
- [   0.25180157,   0.00000000,   0.00000000 ] # a*
- [   0.00000000,   0.25180157,   0.00000000 ] # b*
- [   0.00000000,   0.00000000,   0.25180157 ] # c*
phonon:
- q-position: [    0.0000000,    0.0000000,    0.0000000 ]
  band:
  - # 1
    frequency:   -0.0101696836
  - # 2
    frequency:   -0.0101696836
  - # 3
    frequency:   -0.0101696836
  - # 4
    frequency:    1.4589547615
  - # 5
    frequency:    1.4589547615
  - # 6
    frequency:    1.4589547615
  - # 7
    frequency:    5.1209297386
  - # 8
    frequency:    5.1209297386
  - # 9
    frequency:    5.1209297386
  - # 10
    frequency:    9.3758866096
  - # 11
    frequency:    9.3758866096
  - # 12
    frequency:    9.3758866096
  - # 13
    frequency:   14.3514164666
  - # 14
    frequency:   14.3514164666
  - # 15
    frequency:   14.3514164666

- q-position: [    0.0000000,    0.0166667,    0.0000000 ]
  band:
  - # 1
    frequency:    0.1918368665
  - # 2
    frequency:    0.1918368665
  - # 3
    frequency:    0.2729095256
  - # 4
    frequency:    1.4705810538
  - # 5
    frequency:    1.4705810538
  - # 6
    frequency:    5.0774312688
  - # 7
    frequency:    5.1221766565
  - # 8
    frequency:    5.1221766565
  - # 9
    frequency:    9.3771383048
  - # 10
    frequency:    9.3772833537
  - # 11
    frequency:    9.3772833537
  - # 12
    frequency:   12.7532592212
  - # 13
    frequency:   14.3500307445
  - # 14
    frequency:   14.3500307445
  - # 15
    frequency:   18.8677204478

- q-position: [    0.0000000,    0.0333333,    0.0000000 ]
  band:
  - # 1
    frequency:    0.3799168571
  - # 2
    frequency:    0.3799168571
  - # 3
    frequency:    0.5451183859
  - # 4
    frequency:    1.5055290207
  - # 5
    frequency:    1.5055290207
  - # 6
    frequency:    5.1077146597
  - # 7
    frequency:    5.1259535920
  - # 8
    frequency:    5.1259535920
  - # 9
    frequency:    9.3808767880
  - # 10
    frequency:    9.3814732868
  - # 11
    frequency:    9.3814732868
  - # 12
    frequency:   12.7929507794
  - # 13
    frequency:   14.3458763707
  - # 14
    frequency:   14.3458763707
  - # 15
    frequency:   18.8727846267

- q-position: [    0.0000000,    0.0500000,    0.0000000 ]
  band:
  - # 1
    frequency:    0.5597322241
  - # 2
    frequency:    0.5597322241
  - # 3
    frequency:    0.8157974086
  - # 4
    frequency:    1.5638857494
  - # 5
    frequency:    1.5638857494
  - # 6
    frequency:    5.1323691036
  - # 7
    frequency:    5.1323691036
  - # 8
    frequency:    5.1575671845
  - # 9
    frequency:    9.3870525149
  - # 10
    frequency:    9.3884553251
  - # 11
    frequency:    9.3884553251
  - # 12
    frequency:   12.8543966226
  - # 13
    frequency:   14.3389619364
  - # 14
    frequency:   14.3389619364
  - # 15
    frequency:   18.8823605299

- q-position: [    0.0000000,    0.0666667,    0.0000000 ]
  band:
  - # 1
    frequency:    0.7278661268
  - # 2
    frequency:    0.7278661268
  - # 3
    frequency:    1.0839013721
  - # 4
    frequency:    1.6453464909
  - # 5
    frequency:    1.6453464909
  - # 6
    frequency:    5.1416039176
  - # 7
    frequency:    5.1416039176
  - # 8
    frequency:    5.2261588445
  - # 9
    frequency:    9.3955837843
  - # 10
    frequency:    9.3982270302
  - # 11
    frequency:    9.3982270302
  - # 12
    frequency:   12.9314480470
  - # 13
    frequency:   14.3293024757
  - # 14
    frequency:   14.3293024757
  - # 15
    frequency:   18.8977651591

- q-position: [    0.0000000,    0.0833333,    0.0000000 ]
  band:
  - # 1
    frequency:    0.8820757610
  - # 2
    frequency:    0.8820757610
  - # 3
    frequency:    1.3481119076
  - # 4
    frequency:    1.7485167181
  - # 5
    frequency:    1.7485167181
  - # 6
    frequency:    5.1539097308
  - # 7
    frequency:    5.1539097308
  - # 8
    frequency:    5.3124867940
  - # 9
    frequency:    9.4063580409
  - # 10
    frequency:    9.4107836294
  - # 11
    frequency:    9.4107836294
  - # 12
    frequency:   13.0171192960
  - # 13
    frequency:   14.3169205354
  - # 14
    frequency:   14.3169205354
  - # 15
    frequency:   18.9201463297

- q-position: [    0.0000000,    0.1000000,    0.0000000 ]
  band:
  - # 1
    frequency:    1.0219905584
  - # 2
    frequency:    1.0219905584
  - # 3
    frequency:    1.6068467808
  - # 4
    frequency:    1.8702789369
  - # 5
    frequency:    1.8702789369
  - # 6
    frequency:    5.1696056718
  - # 7
    frequency:    5.1696056718
  - # 8
    frequency:    5.4154572399
  - # 9
    frequency:    9.4192336848
  - # 10
    frequency:    9.4261165802
  - # 11
    frequency:    9.4261165802
  - # 12
    frequency:   13.1047806072
  - # 13
    frequency:   14.3018476702
  - # 14
    frequency:   14.3018476702
  - # 15
    frequency:   18.9499718120

- q-position: [    0.0000000,    0.1166667,    0.0000000 ]
  band:
  - # 1
    frequency:    1.1491117727
  - # 2
    frequency:    1.1491117727
  - # 3
    frequency:    1.8583378013
  - # 4
    frequency:    2.0058265455
  - # 5
    frequency:    2.0058265455
  - # 6
    frequency:    5.1890704199
  - # 7
    frequency:    5.1890704199
  - # 8
    frequency:    5.5339146565
  - # 9
    frequency:    9.4340423690
  - # 10
    frequency:    9.4442116172
  - # 11
    frequency:    9.4442116172
  - # 12
    frequency:   13.1891770740
  - # 13
    frequency:   14.2841263564
  - # 14
    frequency:   14.2841263564
  - # 15
    frequency:   18.9866296846

- q-position: [    0.0000000,    0.1333333,    0.0000000 ]
  band:
  - # 1
    frequency:    1.2660173178
  - # 2
    frequency:    1.2660173178
  - # 3
    frequency:    2.1007719581
  - # 4
    frequency:    2.1494851724
  - # 5
    frequency:    2.1494851724
  - # 6
    frequency:    5.2127273586
  - # 7
    frequency:    5.2127273586
  - # 8
    frequency:    5.6666046850
  - # 9
    frequency:    9.4505917560
  - # 10
    frequency:    9.4650462034
  - # 11
    frequency:    9.4650462034
  - # 12
    frequency:   13.2670555363
  - # 13
    frequency:   14.2638123183
  - # 14
    frequency:   14.2638123183
  - # 15
    frequency:   19.0282772080

- q-position: [    0.0000000,    0.1500000,    0.0000000 ]
  band:
  - # 1
    frequency:    1.3753786250
  - # 2
    frequency:    1.3753786250
  - # 3
    frequency:    2.2957182933
  - # 4
    frequency:    2.2957182933
  - # 5
    frequency:    2.3324741012
  - # 6
    frequency:    5.2410197682
  - # 7
    frequency:    5.2410197682
  - # 8
    frequency:    5.8120808014
  - # 9
    frequency:    9.4686686915
  - # 10
    frequency:    9.4885863027
  - # 11
    frequency:    9.4885863027
  - # 12
    frequency:   13.3372961816
  - # 13
    frequency:   14.2409772548
  - # 14
    frequency:   14.2409772548
  - # 15
    frequency:   19.0720070052

- q-position: [    0.0000000,    0.1666667,    0.0000000 ]
  band:
  - # 1
    frequency:    1.4793653568
  - # 2
    frequency:    1.4793653568
  - # 3
    frequency:    2.4397471902
  - # 4
    frequency:    2.4397471902
  - # 5
    frequency:    2.5520940912
  - # 6
    frequency:    5.2743733808
  - # 7
    frequency:    5.2743733808
  - # 8
    frequency:    5.9685871819
  - # 9
    frequency:    9.4880427387
  - # 10
    frequency:    9.5147823847
  - # 11
    frequency:    9.5147823847
  - # 12
    frequency:   13.4005927847
  - # 13
    frequency:   14.2157119479
  - # 14
    frequency:   14.2157119479
  - # 15
    frequency:   19.1142921738

- q-position: [    0.0000000,    0.1833333,    0.0000000 ]
  band:
  - # 1
    frequency:    1.5794975244
  - # 2
    frequency:    1.5794975244
  - # 3
    frequency:    2.5777313879
  - # 4
    frequency:    2.5777313879
  - # 5
    frequency:    2.7587534336
  - # 6
    frequency:    5.3131451749
  - # 7
    frequency:    5.3131451749
  - # 8
    frequency:    6.1339634159
  - # 9
    frequency:    9.5084700004
  - # 10
    frequency:    9.5435645923
  - # 11
    frequency:    9.5435645923
  - # 12
    frequency:   13.4588452271
  - # 13
    frequency:   14.1881297277
  - # 14
    frequency:   14.1881297277
  - # 15
    frequency:   19.1515788199

- q-position: [    0.0000000,    0.2000000,    0.0000000 ]
  band:
  - # 1
    frequency:    1.6767356870
  - # 2
    frequency:    1.6767356870
  - # 3
    frequency:    2.7067207767
  - # 4
    frequency:    2.7067207767
  - # 5
    frequency:    2.9521126264
  - # 6
    frequency:    5.3575605607
  - # 7
    frequency:    5.3575605607
  - # 8
    frequency:    6.3056141839
  - # 9
    frequency:    9.5296971411
  - # 10
    frequency:    9.5748370303
  - # 11
    frequency:    9.5748370303
  - # 12
    frequency:   13.5144732784
  - # 13
    frequency:   14.1583702526
  - # 14
    frequency:   14.1583702526
  - # 15
    frequency:   19.1808606841

- q-position: [    0.0000000,    0.2166667,    0.0000000 ]
  band:
  - # 1
    frequency:    1.7716322352
  - # 2
    frequency:    1.7716322352
  - # 3
    frequency:    2.8245522312
  - # 4
    frequency:    2.8245522312
  - # 5
    frequency:    3.1323416948
  - # 6
    frequency:    5.4076459240
  - # 7
    frequency:    5.4076459240
  - # 8
    frequency:    6.4805681788
  - # 9
    frequency:    9.5514655084
  - # 10
    frequency:    9.6084711923
  - # 11
    frequency:    9.6084711923
  - # 12
    frequency:   13.5698286605
  - # 13
    frequency:   14.1266035437
  - # 14
    frequency:   14.1266035437
  - # 15
    frequency:   19.2001010101

- q-position: [    0.0000000,    0.2333333,    0.0000000 ]
  band:
  - # 1
    frequency:    1.8644650908
  - # 2
    frequency:    1.8644650908
  - # 3
    frequency:    2.9297589428
  - # 4
    frequency:    2.9297589428
  - # 5
    frequency:    3.3000048734
  - # 6
    frequency:    5.4631685089
  - # 7
    frequency:    5.4631685089
  - # 8
    frequency:    6.6556234750
  - # 9
    frequency:    9.5735152437
  - # 10
    frequency:    9.6442986314
  - # 11
    frequency:    9.6442986314
  - # 12
    frequency:   13.6268066264
  - # 13
    frequency:   14.0930341877
  - # 14
    frequency:   14.0930341877
  - # 15
    frequency:   19.2084319646

- q-position: [    0.0000000,    0.2500000,    0.0000000 ]
  band:
  - # 1
    frequency:    1.9553350348
  - # 2
    frequency:    1.9553350348
  - # 3
    frequency:    3.0214972035
  - # 4
    frequency:    3.0214972035
  - # 5
    frequency:    3.4558935875
  - # 6
    frequency:    5.5235982570
  - # 7
    frequency:    5.5235982570
  - # 8
    frequency:    6.8275536298
  - # 9
    frequency:    9.5955892662
  - # 10
    frequency:    9.6821030949
  - # 11
    frequency:    9.6821030949
  - # 12
    frequency:   13.6866778353
  - # 13
    frequency:   14.0579055782
  - # 14
    frequency:   14.0579055782
  - # 15
    frequency:   19.2061274501

- q-position: [    0.0000000,    0.2666667,    0.0000000 ]
  band:
  - # 1
    frequency:    2.0442303810
  - # 2
    frequency:    2.0442303810
  - # 3
    frequency:    3.0994745232
  - # 4
    frequency:    3.0994745232
  - # 5
    frequency:    3.6008508477
  - # 6
    frequency:    5.5881039205
  - # 7
    frequency:    5.5881039205
  - # 8
    frequency:    6.9933379745
  - # 9
    frequency:    9.6174370167
  - # 10
    frequency:    9.7216124954
  - # 11
    frequency:    9.7216124954
  - # 12
    frequency:   13.7501001091
  - # 13
    frequency:   14.0215040159
  - # 14
    frequency:   14.0215040159
  - # 15
    frequency:   19.1943927132

- q-position: [    0.0000000,    0.2833333,    0.0000000 ]
  band:
  - # 1
    frequency:    2.1310674978
  - # 2
    frequency:    2.1310674978
  - # 3
    frequency:    3.1638655247
  - # 4
    frequency:    3.1638655247
  - # 5
    frequency:    3.7356244668
  - # 6
    frequency:    5.6555880262
  - # 7
    frequency:    5.6555880262
  - # 8
    frequency:    7.1503797916
  - # 9
    frequency:    9.6388178550
  - # 10
    frequency:    9.7624912585
  - # 11
    frequency:    9.7624912585
  - # 12
    frequency:   13.8172355851
  - # 13
    frequency:   13.9841624139
  - # 14
    frequency:   13.9841624139
  - # 15
    frequency:   19.1750411097

- q-position: [    0.0000000,    0.3000000,    0.0000000 ]
  band:
  - # 1
    frequency:    2.2157145688
  - # 2
    frequency:    2.2157145688
  - # 3
    frequency:    3.2152133539
  - # 4
    frequency:    3.2152133539
  - # 5
    frequency:    3.8607719752
  - # 6
    frequency:    5.7247548587
  - # 7
    frequency:    5.7247548587
  - # 8
    frequency:    7.2966808763
  - # 9
    frequency:    9.6595040186
  - # 10
    frequency:    9.8043337699
  - # 11
    frequency:    9.8043337699
  - # 12
    frequency:   13.8878917064
  - # 13
    frequency:   13.9462632669
  - # 14
    frequency:   13.9462632669
  - # 15
    frequency:   19.1501380336

- q-position: [    0.0000000,    0.3166667,    0.0000000 ]
  band:
  - # 1
    frequency:    2.2980036887
  - # 2
    frequency:    2.2980036887
  - # 3
    frequency:    3.2543249008
  - # 4
    frequency:    3.2543249008
  - # 5
    frequency:    3.9766235918
  - # 6
    frequency:    5.7941972918
  - # 7
    frequency:    5.7941972918
  - # 8
    frequency:    7.4309455256
  - # 9
    frequency:    9.6792830707
  - # 10
    frequency:    9.8466598130
  - # 11
    frequency:    9.8466598130
  - # 12
    frequency:   13.9082404298
  - # 13
    frequency:   13.9082404298
  - # 14
    frequency:   13.9616211759
  - # 15
    frequency:   19.1216866528

- q-position: [    0.0000000,    0.3333333,    0.0000000 ]
  band:
  - # 1
    frequency:    2.3777342417
  - # 2
    frequency:    2.3777342417
  - # 3
    frequency:    3.2821730429
  - # 4
    frequency:    3.2821730429
  - # 5
    frequency:    4.0832956217
  - # 6
    frequency:    5.8624855285
  - # 7
    frequency:    5.8624855285
  - # 8
    frequency:    7.5525921774
  - # 9
    frequency:    9.6979597903
  - # 10
    frequency:    9.8889130189
  - # 11
    frequency:    9.8889130189
  - # 12
    frequency:   13.8705791349
  - # 13
    frequency:   13.8705791349
  - # 14
    frequency:   14.0377497040
  - # 15
    frequency:   19.0914108039

- q-position: [    0.0000000,    0.3500000,    0.0000000 ]
  band:
  - # 1
    frequency:    2.4546686655
  - # 2
    frequency:    2.4546686655
  - # 3
    frequency:    3.2998180987
  - # 4
    frequency:    3.2998180987
  - # 5
    frequency:    4.1807374027
  - # 6
    frequency:    5.9282437901
  - # 7
    frequency:    5.9282437901
  - # 8
    frequency:    7.6616615797
  - # 9
    frequency:    9.7153574854
  - # 10
    frequency:    9.9304634163
  - # 11
    frequency:    9.9304634163
  - # 12
    frequency:   13.8338135528
  - # 13
    frequency:   13.8338135528
  - # 14
    frequency:   14.1153394143
  - # 15
    frequency:   19.0606603201

- q-position: [    0.0000000,    0.3666667,    0.0000000 ]
  band:
  - # 1
    frequency:    2.5285198376
  - # 2
    frequency:    2.5285198376
  - # 3
    frequency:    3.3083565946
  - # 4
    frequency:    3.3083565946
  - # 5
    frequency:    4.2687912680
  - # 6
    frequency:    5.9902071113
  - # 7
    frequency:    5.9902071113
  - # 8
    frequency:    7.7586298656
  - # 9
    frequency:    9.7313187418
  - # 10
    frequency:    9.9706151349
  - # 11
    frequency:    9.9706151349
  - # 12
    frequency:   13.7985211215
  - # 13
    frequency:   13.7985211215
  - # 14
    frequency:   14.1931257124
  - # 15
    frequency:   19.0304305377

- q-position: [    0.0000000,    0.3833333,    0.0000000 ]
  band:
  - # 1
    frequency:    2.5989269001
  - # 2
    frequency:    2.5989269001
  - # 3
    frequency:    3.3089019665
  - # 4
    frequency:    3.3089019665
  - # 5
    frequency:    4.3472470561
  - # 6
    frequency:    6.0472565372
  - # 7
    frequency:    6.0472565372
  - # 8
    frequency:    7.8441602153
  - # 9
    frequency:    9.7457056463
  - # 10
    frequency:   10.0086201411
  - # 11
    frequency:   10.0086201411
  - # 12
    frequency:   13.7653128523
  - # 13
    frequency:   13.7653128523
  - # 14
    frequency:   14.2694754756
  - # 15
    frequency:   19.0014604788

- q-position: [    0.0000000,    0.4000000,    0.0000000 ]
  band:
  - # 1
    frequency:    2.6654124392
  - # 2
    frequency:    2.6654124392
  - # 3
    frequency:    3.3026017087
  - # 4
    frequency:    3.3026017087
  - # 5
    frequency:    4.4158795466
  - # 6
    frequency:    6.0984352806
  - # 7
    frequency:    6.0984352806
  - # 8
    frequency:    7.9188481504
  - # 9
    frequency:    9.7583995557
  - # 10
    frequency:   10.0436985471
  - # 11
    frequency:   10.0436985471
  - # 12
    frequency:   13.7348189522
  - # 13
    frequency:   13.7348189522
  - # 14
    frequency:   14.3424034366
  - # 15
    frequency:   18.9743608167

- q-position: [    0.0000000,    0.4166667,    0.0000000 ]
  band:
  - # 1
    frequency:    2.7273070768
  - # 2
    frequency:    2.7273070768
  - # 3
    frequency:    3.2907005639
  - # 4
    frequency:    3.2907005639
  - # 5
    frequency:    4.4744665175
  - # 6
    frequency:    6.1429504383
  - # 7
    frequency:    6.1429504383
  - # 8
    frequency:    7.9830217980
  - # 9
    frequency:    9.7693004999
  - # 10
    frequency:   10.0750654805
  - # 11
    frequency:   10.0750654805
  - # 12
    frequency:   13.7076694297
  - # 13
    frequency:   13.7076694297
  - # 14
    frequency:   14.4096602252
  - # 15
    frequency:   18.9497250891

- q-position: [    0.0000000,    0.4333333,    0.0000000 ]
  band:
  - # 1
    frequency:    2.7836161697
  - # 2
    frequency:    2.7836161697
  - # 3
    frequency:    3.2746705630
  - # 4
    frequency:    3.2746705630
  - # 5
    frequency:    4.5227934609
  - # 6
    frequency:    6.1801652209
  - # 7
    frequency:    6.1801652209
  - # 8
    frequency:    8.0366445041
  - # 9
    frequency:    9.7783263291
  - # 10
    frequency:   10.1019637411
  - # 11
    frequency:   10.1019637411
  - # 12
    frequency:   13.6844699276
  - # 13
    frequency:   13.6844699276
  - # 14
    frequency:   14.4688819948
  - # 15
    frequency:   18.9281919596

- q-position: [    0.0000000,    0.4500000,    0.0000000 ]
  band:
  - # 1
    frequency:    2.8327914191
  - # 2
    frequency:    2.8327914191
  - # 3
    frequency:    3.2564413409
  - # 4
    frequency:    3.2564413409
  - # 5
    frequency:    4.5606551094
  - # 6
    frequency:    6.2095860827
  - # 7
    frequency:    6.2095860827
  - # 8
    frequency:    8.0793374059
  - # 9
    frequency:    9.7854117213
  - # 10
    frequency:   10.1237005223
  - # 11
    frequency:   10.1237005223
  - # 12
    frequency:   13.6657738453
  - # 13
    frequency:   13.6657738453
  - # 14
    frequency:   14.5177766295
  - # 15
    frequency:   18.9104461405

- q-position: [    0.0000000,    0.4666667,    0.0000000 ]
  band:
  - # 1
    frequency:    2.8723968266
  - # 2
    frequency:    2.8723968266
  - # 3
    frequency:    3.2387384903
  - # 4
    frequency:    3.2387384903
  - # 5
    frequency:    4.5878624171
  - # 6
    frequency:    6.2308482358
  - # 7
    frequency:    6.2308482358
  - # 8
    frequency:    8.1105052741
  - # 9
    frequency:    9.7905071701
  - # 10
    frequency:   10.1396854641
  - # 11
    frequency:   10.1396854641
  - # 12
    frequency:   13.6520527676
  - # 13
    frequency:   13.6520527676
  - # 14
    frequency:   14.5543172206
  - # 15
    frequency:   18.8971647556

- q-position: [    0.0000000,    0.4833333,    0.0000000 ]
  band:
  - # 1
    frequency:    2.8988862188
  - # 2
    frequency:    2.8988862188
  - # 3
    frequency:    3.2253108333
  - # 4
    frequency:    3.2253108333
  - # 5
    frequency:    4.6042578897
  - # 6
    frequency:    6.2437021190
  - # 7
    frequency:    6.2437021190
  - # 8
    frequency:    8.1295218764
  - # 9
    frequency:    9.7935780631
  - # 10
    frequency:   10.1494664492
  - # 11
    frequency:   10.1494664492
  - # 12
    frequency:   13.6436680998
  - # 13
    frequency:   13.6436680998
  - # 14
    frequency:   14.5769168731
  - # 15
    frequency:   18.8889302980

- q-position: [    0.0000000,    0.5000000,    0.0000000 ]
  band:
  - # 1
    frequency:    2.9083408786
  - # 2
    frequency:    2.9083408786
  - # 3
    frequency:    3.2201968785
  - # 4
    frequency:    3.2201968785
  - # 5
    frequency:    4.6097355568
  - # 6
    frequency:    6.2480026086
  - # 7
    frequency:    6.2480026086
  - # 8
    frequency:    8.1359184436
  - # 9
    frequency:    9.7946039485
  - # 10
    frequency:   10.1527591307
  - # 11
    frequency:   10.1527591307
  - # 12
    frequency:   13.6408473159
  - # 13
    frequency:   13.6408473159
  - # 14
    frequency:   14.5845655959
  - # 15
    frequency:   18.8861386651

- q-position: [    0.0166667,    0.5000000,    0.0000000 ]
  band:
  - # 1
    frequency:    2.9101917248
  - # 2
    frequency:    2.9478940747
  - # 3
    frequency:    3.2199121528
  - # 4
    frequency:    3.2202161751
  - # 5
    frequency:    4.6299490060
  - # 6
    frequency:    6.2551137575
  - # 7
    frequency:    6.2574162705
  - # 8
    frequency:    8.1305099749
  - # 9
    frequency:    9.7466755481
  - # 10
    frequency:   10.1531223284
  - # 11
    frequency:   10.2012288758
  - # 12
    frequency:   13.6298580569
  - # 13
    frequency:   13.6381188767
  - # 14
    frequency:   14.5825266811
  - # 15
    frequency:   18.9028801976

- q-position: [    0.0333333,    0.5000000,    0.0000000 ]
  band:
  - # 1
    frequency:    2.9156794719
  - # 2
    frequency:    3.0545381771
  - # 3
    frequency:    3.2190645358
  - # 4
    frequency:    3.2202734467
  - # 5
    frequency:    4.6946679246
  - # 6
    frequency:    6.2763009733
  - # 7
    frequency:    6.2855412901
  - # 8
    frequency:    8.1139700898
  - # 9
    frequency:    9.6438801533
  - # 10
    frequency:   10.1542074448
  - # 11
    frequency:   10.3060086908
  - # 12
    frequency:   13.5974766258
  - # 13
    frequency:   13.6299317011
  - # 14
    frequency:   14.5764174307
  - # 15
    frequency:   18.9523864916

- q-position: [    0.0500000,    0.5000000,    0.0000000 ]
  band:
  - # 1
    frequency:    2.9246162163
  - # 2
    frequency:    3.1972065583
  - # 3
    frequency:    3.2176737513
  - # 4
    frequency:    3.2203668859
  - # 5
    frequency:    4.8148229154
  - # 6
    frequency:    6.3111512976
  - # 7
    frequency:    6.3320333466
  - # 8
    frequency:    8.0853787657
  - # 9
    frequency:    9.5261068481
  - # 10
    frequency:   10.1560011475
  - # 11
    frequency:   10.4282670051
  - # 12
    frequency:   13.5453711815
  - # 13
    frequency:   13.6162803943
  - # 14
    frequency:   14.5662603156
  - # 15
    frequency:   19.0325967350

- q-position: [    0.0666667,    0.5000000,    0.0000000 ]
  band:
  - # 1
    frequency:    2.9367091124
  - # 2
    frequency:    3.2157728140
  - # 3
    frequency:    3.2204936306
  - # 4
    frequency:    3.3389987013
  - # 5
    frequency:    5.0025649510
  - # 6
    frequency:    6.3590642096
  - # 7
    frequency:    6.3963304347
  - # 8
    frequency:    8.0433034047
  - # 9
    frequency:    9.4077658997
  - # 10
    frequency:   10.1584815333
  - # 11
    frequency:   10.5552545336
  - # 12
    frequency:   13.4760516493
  - # 13
    frequency:   13.5971565567
  - # 14
    frequency:   14.5520927475
  - # 15
    frequency:   19.1403581535

- q-position: [    0.0833333,    0.5000000,    0.0000000 ]
  band:
  - # 1
    frequency:    2.9515868870
  - # 2
    frequency:    3.2134082318
  - # 3
    frequency:    3.2206499750
  - # 4
    frequency:    3.4532532841
  - # 5
    frequency:    5.2611554931
  - # 6
    frequency:    6.4194022856
  - # 7
    frequency:    6.4776703482
  - # 8
    frequency:    7.9860187391
  - # 9
    frequency:    9.2952955807
  - # 10
    frequency:   10.1616185857
  - # 11
    frequency:   10.6825764070
  - # 12
    frequency:   13.3925589407
  - # 13
    frequency:   13.5725496509
  - # 14
    frequency:   14.5339670217
  - # 15
    frequency:   19.2717568585

- q-position: [    0.1000000,    0.5000000,    0.0000000 ]
  band:
  - # 1
    frequency:    2.9688301971
  - # 2
    frequency:    3.2106402695
  - # 3
    frequency:    3.2208316362
  - # 4
    frequency:    3.5316145757
  - # 5
    frequency:    5.5792705321
  - # 6
    frequency:    6.4918090739
  - # 7
    frequency:    6.5751143159
  - # 8
    frequency:    7.9119005574
  - # 9
    frequency:    9.1926110101
  - # 10
    frequency:   10.1653747776
  - # 11
    frequency:   10.8083480264
  - # 12
    frequency:   13.2981663365
  - # 13
    frequency:   13.5424481765
  - # 14
    frequency:   14.5119502361
  - # 15
    frequency:   19.4224492354

- q-position: [    0.1166667,    0.5000000,    0.0000000 ]
  band:
  - # 1
    frequency:    2.9880013500
  - # 2
    frequency:    3.2075432463
  - # 3
    frequency:    3.2210340505
  - # 4
    frequency:    3.5786350278
  - # 5
    frequency:    5.9357544325
  - # 6
    frequency:    6.5771781932
  - # 7
    frequency:    6.6875755832
  - # 8
    frequency:    7.8199429198
  - # 9
    frequency:    9.1021490301
  - # 10
    frequency:   10.1697057849
  - # 11
    frequency:   10.9316309777
  - # 12
    frequency:   13.1961480253
  - # 13
    frequency:   13.5068411233
  - # 14
    frequency:   14.4861241878
  - # 15
    frequency:   19.5879420015

- q-position: [    0.1333333,    0.5000000,    0.0000000 ]
  band:
  - # 1
    frequency:    3.0086698676
  - # 2
    frequency:    3.2042058311
  - # 3
    frequency:    3.2212526739
  - # 4
    frequency:    3.6025421532
  - # 5
    frequency:    6.3033831551
  - # 6
    frequency:    6.6824824187
  - # 7
    frequency:    6.8138511911
  - # 8
    frequency:    7.7101967055
  - # 9
    frequency:    9.0249334914
  - # 10
    frequency:   10.1745612761
  - # 11
    frequency:   11.0519268340
  - # 12
    frequency:   13.0896339965
  - # 13
    frequency:   13.4657196734
  - # 14
    frequency:   14.4565852421
  - # 15
    frequency:   19.7638039249

- q-position: [    0.1500000,    0.5000000,    0.0000000 ]
  band:
  - # 1
    frequency:    3.0304318230
  - # 2
    frequency:    3.2007312795
  - # 3
    frequency:    3.2214832563
  - # 4
    frequency:    3.6104729434
  - # 5
    frequency:    6.6189156826
  - # 6
    frequency:    6.8546542720
  - # 7
    frequency:    6.9526548430
  - # 8
    frequency:    7.5838864865
  - # 9
    frequency:    8.9606549690
  - # 10
    frequency:   10.1798857369
  - # 11
    frequency:   11.1689778770
  - # 12
    frequency:   12.9815448574
  - # 13
    frequency:   13.4190791369
  - # 14
    frequency:   14.4234441700
  - # 15
    frequency:   19.9458161291

- q-position: [    0.1666667,    0.5000000,    0.0000000 ]
  band:
  - # 1
    frequency:    3.0529223129
  - # 2
    frequency:    3.1972375367
  - # 3
    frequency:    3.2217220663
  - # 4
    frequency:    3.6075384281
  - # 5
    frequency:    6.7935619167
  - # 6
    frequency:    7.1026486828
  - # 7
    frequency:    7.1703061466
  - # 8
    frequency:    7.4431498501
  - # 9
    frequency:    8.9080212888
  - # 10
    frequency:   10.1856192967
  - # 11
    frequency:   11.2826743063
  - # 12
    frequency:   12.8745888795
  - # 13
    frequency:   13.3669211229
  - # 14
    frequency:   14.3868259479
  - # 15
    frequency:   20.1300769339

- q-position: [    0.1833333,    0.5000000,    0.0000000 ]
  band:
  - # 1
    frequency:    3.0758215364
  - # 2
    frequency:    3.1938571026
  - # 3
    frequency:    3.2219660465
  - # 4
    frequency:    3.5971990132
  - # 5
    frequency:    6.9163591730
  - # 6
    frequency:    7.2624720621
  - # 7
    frequency:    7.2905881214
  - # 8
    frequency:    7.5313720817
  - # 9
    frequency:    8.8652536635
  - # 10
    frequency:   10.1916985246
  - # 11
    frequency:   11.3930042657
  - # 12
    frequency:   12.7713022157
  - # 13
    frequency:   13.3092559804
  - # 14
    frequency:   14.3468695175
  - # 15
    frequency:   20.3130759428

- q-position: [    0.2000000,    0.5000000,    0.0000000 ]
  band:
  - # 1
    frequency:    3.0988555950
  - # 2
    frequency:    3.1907365224
  - # 3
    frequency:    3.2222128862
  - # 4
    frequency:    3.5817891521
  - # 5
    frequency:    7.0321635590
  - # 6
    frequency:    7.1288685981
  - # 7
    frequency:    7.4307658421
  - # 8
    frequency:    7.8861112762
  - # 9
    frequency:    8.8305118503
  - # 10
    frequency:   10.1980571756
  - # 11
    frequency:   11.5000232517
  - # 12
    frequency:   12.6741153794
  - # 13
    frequency:   13.2461055888
  - # 14
    frequency:   14.3037275118
  - # 15
    frequency:   20.4917467467

- q-position: [    0.2166667,    0.5000000,    0.0000000 ]
  band:
  - # 1
    frequency:    3.1217933799
  - # 2
    frequency:    3.1880353215
  - # 3
    frequency:    3.2224610073
  - # 4
    frequency:    3.5629136825
  - # 5
    frequency:    6.9604915445
  - # 6
    frequency:    7.1477076656
  - # 7
    frequency:    7.6061913261
  - # 8
    frequency:    8.2222766503
  - # 9
    frequency:    8.8021448969
  - # 10
    frequency:   10.2046268723
  - # 11
    frequency:   11.6038331766
  - # 12
    frequency:   12.5854297673
  - # 13
    frequency:   13.1775066431
  - # 14
    frequency:   14.2575659717
  - # 15
    frequency:   20.6635023349

- q-position: [    0.2333333,    0.5000000,    0.0000000 ]
  band:
  - # 1
    frequency:    3.1444408757
  - # 2
    frequency:    3.1859241499
  - # 3
    frequency:    3.2227094685
  - # 4
    frequency:    3.5417091936
  - # 5
    frequency:    6.7877076620
  - # 6
    frequency:    7.2640525178
  - # 7
    frequency:    7.7874434118
  - # 8
    frequency:    8.5341174281
  - # 9
    frequency:    8.7787862917
  - # 10
    frequency:   10.2113377200
  - # 11
    frequency:   11.7045666321
  - # 12
    frequency:   12.5076838510
  - # 13
    frequency:   13.1035146638
  - # 14
    frequency:   14.2085641069
  - # 15
    frequency:   20.8262538690

- q-position: [    0.2500000,    0.5000000,    0.0000000 ]
  band:
  - # 1
    frequency:    3.1666340410
  - # 2