5000
3

   1
    0.01000000000000     0.00000000000000     0.00000000000000

1001
    0.01000000000000     0.00000000000000     0.00000000000000

2001
    0.00707106781187     0.00000000000000     0.00707106781187
