natom:  135
displacements:
- atom:    1
  direction:
    [   1.0000000000000000,  0.0000000000000000,  0.0000000000000000 ]
  displacement:
    [   0.0100000000000000,  0.0000000000000000,  0.0000000000000000 ]
- atom:   28
  direction:
    [   1.0000000000000000,  0.0000000000000000,  0.0000000000000000 ]
  displacement:
    [   0.0100000000000000,  0.0000000000000000,  0.0000000000000000 ]
- atom:   55
  direction:
    [   1.0000000000000000,  0.0000000000000000,  1.0000000000000000 ]
  displacement:
    [   0.0070710678118655,  0.0000000000000000,  0.0070710678118655 ]
lattice:
- [    11.917527435629999,     0.000000000000000,     0.000000000000000 ] # a
- [     0.000000000000000,    11.917527435629999,     0.000000000000000 ] # b
- [     0.000000000000000,     0.000000000000000,    11.917527435629999 ] # c
points:
- symbol: Ba # 1
  coordinates: [  0.000000000000000,  0.000000000000000,  0.000000000000000 ]
  mass: 137.327000
- symbol: Ba # 2
  coordinates: [  0.333333333333333,  0.000000000000000,  0.000000000000000 ]
  mass: 137.327000
- symbol: Ba # 3
  coordinates: [  0.666666666666667,  0.000000000000000,  0.000000000000000 ]
  mass: 137.327000
- symbol: Ba # 4
  coordinates: [  0.000000000000000,  0.333333333333333,  0.000000000000000 ]
  mass: 137.327000
- symbol: Ba # 5
  coordinates: [  0.333333333333333,  0.333333333333333,  0.000000000000000 ]
  mass: 137.327000
- symbol: Ba # 6
  coordinates: [  0.666666666666667,  0.333333333333333,  0.000000000000000 ]
  mass: 137.327000
- symbol: Ba # 7
  coordinates: [  0.000000000000000,  0.666666666666667,  0.000000000000000 ]
  mass: 137.327000
- symbol: Ba # 8
  coordinates: [  0.333333333333333,  0.666666666666667,  0.000000000000000 ]
  mass: 137.327000
- symbol: Ba # 9
  coordinates: [  0.666666666666667,  0.666666666666667,  0.000000000000000 ]
  mass: 137.327000
- symbol: Ba # 10
  coordinates: [  0.000000000000000,  0.000000000000000,  0.333333333333333 ]
  mass: 137.327000
- symbol: Ba # 11
  coordinates: [  0.333333333333333,  0.000000000000000,  0.333333333333333 ]
  mass: 137.327000
- symbol: Ba # 12
  coordinates: [  0.666666666666667,  0.000000000000000,  0.333333333333333 ]
  mass: 137.327000
- symbol: Ba # 13
  coordinates: [  0.000000000000000,  0.333333333333333,  0.333333333333333 ]
  mass: 137.327000
- symbol: Ba # 14
  coordinates: [  0.333333333333333,  0.333333333333333,  0.333333333333333 ]
  mass: 137.327000
- symbol: Ba # 15
  coordinates: [  0.666666666666667,  0.333333333333333,  0.333333333333333 ]
  mass: 137.327000
- symbol: Ba # 16
  coordinates: [  0.000000000000000,  0.666666666666667,  0.333333333333333 ]
  mass: 137.327000
- symbol: Ba # 17
  coordinates: [  0.333333333333333,  0.666666666666667,  0.333333333333333 ]
  mass: 137.327000
- symbol: Ba # 18
  coordinates: [  0.666666666666667,  0.666666666666667,  0.333333333333333 ]
  mass: 137.327000
- symbol: Ba # 19
  coordinates: [  0.000000000000000,  0.000000000000000,  0.666666666666667 ]
  mass: 137.327000
- symbol: Ba # 20
  coordinates: [  0.333333333333333,  0.000000000000000,  0.666666666666667 ]
  mass: 137.327000
- symbol: Ba # 21
  coordinates: [  0.666666666666667,  0.000000000000000,  0.666666666666667 ]
  mass: 137.327000
- symbol: Ba # 22
  coordinates: [  0.000000000000000,  0.333333333333333,  0.666666666666667 ]
  mass: 137.327000
- symbol: Ba # 23
  coordinates: [  0.333333333333333,  0.333333333333333,  0.666666666666667 ]
  mass: 137.327000
- symbol: Ba # 24
  coordinates: [  0.666666666666667,  0.333333333333333,  0.666666666666667 ]
  mass: 137.327000
- symbol: Ba # 25
  coordinates: [  0.000000000000000,  0.666666666666667,  0.666666666666667 ]
  mass: 137.327000
- symbol: Ba # 26
  coordinates: [  0.333333333333333,  0.666666666666667,  0.666666666666667 ]
  mass: 137.327000
- symbol: Ba # 27
  coordinates: [  0.666666666666667,  0.666666666666667,  0.666666666666667 ]
  mass: 137.327000
- symbol: Ti # 28
  coordinates: [  0.166666666666667,  0.166666666666667,  0.166666666666667 ]
  mass: 47.867000
- symbol: Ti # 29
  coordinates: [  0.500000000000000,  0.166666666666667,  0.166666666666667 ]
  mass: 47.867000
- symbol: Ti # 30
  coordinates: [  0.833333333333333,  0.166666666666667,  0.166666666666667 ]
  mass: 47.867000
- symbol: Ti # 31
  coordinates: [  0.166666666666667,  0.500000000000000,  0.166666666666667 ]
  mass: 47.867000
- symbol: Ti # 32
  coordinates: [  0.500000000000000,  0.500000000000000,  0.166666666666667 ]
  mass: 47.867000
- symbol: Ti # 33
  coordinates: [  0.833333333333333,  0.500000000000000,  0.166666666666667 ]
  mass: 47.867000
- symbol: Ti # 34
  coordinates: [  0.166666666666667,  0.833333333333333,  0.166666666666667 ]
  mass: 47.867000
- symbol: Ti # 35
  coordinates: [  0.500000000000000,  0.833333333333333,  0.166666666666667 ]
  mass: 47.867000
- symbol: Ti # 36
  coordinates: [  0.833333333333333,  0.833333333333333,  0.166666666666667 ]
  mass: 47.867000
- symbol: Ti # 37
  coordinates: [  0.166666666666667,  0.166666666666667,  0.500000000000000 ]
  mass: 47.867000
- symbol: Ti # 38
  coordinates: [  0.500000000000000,  0.166666666666667,  0.500000000000000 ]
  mass: 47.867000
- symbol: Ti # 39
  coordinates: [  0.833333333333333,  0.166666666666667,  0.500000000000000 ]
  mass: 47.867000
- symbol: Ti # 40
  coordinates: [  0.166666666666667,  0.500000000000000,  0.500000000000000 ]
  mass: 47.867000
- symbol: Ti # 41
  coordinates: [  0.500000000000000,  0.500000000000000,  0.500000000000000 ]
  mass: 47.867000
- symbol: Ti # 42
  coordinates: [  0.833333333333333,  0.500000000000000,  0.500000000000000 ]
  mass: 47.867000
- symbol: Ti # 43
  coordinates: [  0.166666666666667,  0.833333333333333,  0.500000000000000 ]
  mass: 47.867000
- symbol: Ti # 44
  coordinates: [  0.500000000000000,  0.833333333333333,  0.500000000000000 ]
  mass: 47.867000
- symbol: Ti # 45
  coordinates: [  0.833333333333333,  0.833333333333333,  0.500000000000000 ]
  mass: 47.867000
- symbol: Ti # 46
  coordinates: [  0.166666666666667,  0.166666666666667,  0.833333333333333 ]
  mass: 47.867000
- symbol: Ti # 47
  coordinates: [  0.500000000000000,  0.166666666666667,  0.833333333333333 ]
  mass: 47.867000
- symbol: Ti # 48
  coordinates: [  0.833333333333333,  0.166666666666667,  0.833333333333333 ]
  mass: 47.867000
- symbol: Ti # 49
  coordinates: [  0.166666666666667,  0.500000000000000,  0.833333333333333 ]
  mass: 47.867000
- symbol: Ti # 50
  coordinates: [  0.500000000000000,  0.500000000000000,  0.833333333333333 ]
  mass: 47.867000
- symbol: Ti # 51
  coordinates: [  0.833333333333333,  0.500000000000000,  0.833333333333333 ]
  mass: 47.867000
- symbol: Ti # 52
  coordinates: [  0.166666666666667,  0.833333333333333,  0.833333333333333 ]
  mass: 47.867000
- symbol: Ti # 53
  coordinates: [  0.500000000000000,  0.833333333333333,  0.833333333333333 ]
  mass: 47.867000
- symbol: Ti # 54
  coordinates: [  0.833333333333333,  0.833333333333333,  0.833333333333333 ]
  mass: 47.867000
- symbol: O  # 55
  coordinates: [  0.166666666666667,  0.166666666666667,  0.000000000000000 ]
  mass: 15.999400
- symbol: O  # 56
  coordinates: [  0.500000000000000,  0.166666666666667,  0.000000000000000 ]
  mass: 15.999400
- symbol: O  # 57
  coordinates: [  0.833333333333333,  0.166666666666667,  0.000000000000000 ]
  mass: 15.999400
- symbol: O  # 58
  coordinates: [  0.166666666666667,  0.500000000000000,  0.000000000000000 ]
  mass: 15.999400
- symbol: O  # 59
  coordinates: [  0.500000000000000,  0.500000000000000,  0.000000000000000 ]
  mass: 15.999400
- symbol: O  # 60
  coordinates: [  0.833333333333333,  0.500000000000000,  0.000000000000000 ]
  mass: 15.999400
- symbol: O  # 61
  coordinates: [  0.166666666666667,  0.833333333333333,  0.000000000000000 ]
  mass: 15.999400
- symbol: O  # 62
  coordinates: [  0.500000000000000,  0.833333333333333,  0.000000000000000 ]
  mass: 15.999400
- symbol: O  # 63
  coordinates: [  0.833333333333333,  0.833333333333333,  0.000000000000000 ]
  mass: 15.999400
- symbol: O  # 64
  coordinates: [  0.166666666666667,  0.166666666666667,  0.333333333333333 ]
  mass: 15.999400
- symbol: O  # 65
  coordinates: [  0.500000000000000,  0.166666666666667,  0.333333333333333 ]
  mass: 15.999400
- symbol: O  # 66
  coordinates: [  0.833333333333333,  0.166666666666667,  0.333333333333333 ]
  mass: 15.999400
- symbol: O  # 67
  coordinates: [  0.166666666666667,  0.500000000000000,  0.333333333333333 ]
  mass: 15.999400
- symbol: O  # 68
  coordinates: [  0.500000000000000,  0.500000000000000,  0.333333333333333 ]
  mass: 15.999400
- symbol: O  # 69
  coordinates: [  0.833333333333333,  0.500000000000000,  0.333333333333333 ]
  mass: 15.999400
- symbol: O  # 70
  coordinates: [  0.166666666666667,  0.833333333333333,  0.333333333333333 ]
  mass: 15.999400
- symbol: O  # 71
  coordinates: [  0.500000000000000,  0.833333333333333,  0.333333333333333 ]
  mass: 15.999400
- symbol: O  # 72
  coordinates: [  0.833333333333333,  0.833333333333333,  0.333333333333333 ]
  mass: 15.999400
- symbol: O  # 73
  coordinates: [  0.166666666666667,  0.166666666666667,  0.666666666666667 ]
  mass: 15.999400
- symbol: O  # 74
  coordinates: [  0.500000000000000,  0.166666666666667,  0.666666666666667 ]
  mass: 15.999400
- symbol: O  # 75
  coordinates: [  0.833333333333333,  0.166666666666667,  0.666666666666667 ]
  mass: 15.999400
- symbol: O  # 76
  coordinates: [  0.166666666666667,  0.500000000000000,  0.666666666666667 ]
  mass: 15.999400
- symbol: O  # 77
  coordinates: [  0.500000000000000,  0.500000000000000,  0.666666666666667 ]
  mass: 15.999400
- symbol: O  # 78
  coordinates: [  0.833333333333333,  0.500000000000000,  0.666666666666667 ]
  mass: 15.999400
- symbol: O  # 79
  coordinates: [  0.166666666666667,  0.833333333333333,  0.666666666666667 ]
  mass: 15.999400
- symbol: O  # 80
  coordinates: [  0.500000000000000,  0.833333333333333,  0.666666666666667 ]
  mass: 15.999400
- symbol: O  # 81
  coordinates: [  0.833333333333333,  0.833333333333333,  0.666666666666667 ]
  mass: 15.999400
- symbol: O  # 82
  coordinates: [  0.166666666666667,  0.000000000000000,  0.166666666666667 ]
  mass: 15.999400
- symbol: O  # 83
  coordinates: [  0.500000000000000,  0.000000000000000,  0.166666666666667 ]
  mass: 15.999400
- symbol: O  # 84
  coordinates: [  0.833333333333333,  0.000000000000000,  0.166666666666667 ]
  mass: 15.999400
- symbol: O  # 85
  coordinates: [  0.166666666666667,  0.333333333333333,  0.166666666666667 ]
  mass: 15.999400
- symbol: O  # 86
  coordinates: [  0.500000000000000,  0.333333333333333,  0.166666666666667 ]
  mass: 15.999400
- symbol: O  # 87
  coordinates: [  0.833333333333333,  0.333333333333333,  0.166666666666667 ]
  mass: 15.999400
- symbol: O  # 88
  coordinates: [  0.166666666666667,  0.666666666666667,  0.166666666666667 ]
  mass: 15.999400
- symbol: O  # 89
  coordinates: [  0.500000000000000,  0.666666666666667,  0.166666666666667 ]
  mass: 15.999400
- symbol: O  # 90
  coordinates: [  0.833333333333333,  0.666666666666667,  0.166666666666667 ]
  mass: 15.999400
- symbol: O  # 91
  coordinates: [  0.166666666666667,  0.000000000000000,  0.500000000000000 ]
  mass: 15.999400
- symbol: O  # 92
  coordinates: [  0.500000000000000,  0.000000000000000,  0.500000000000000 ]
  mass: 15.999400
- symbol: O  # 93
  coordinates: [  0.833333333333333,  0.000000000000000,  0.500000000000000 ]
  mass: 15.999400
- symbol: O  # 94
  coordinates: [  0.166666666666667,  0.333333333333333,  0.500000000000000 ]
  mass: 15.999400
- symbol: O  # 95
  coordinates: [  0.500000000000000,  0.333333333333333,  0.500000000000000 ]
  mass: 15.999400
- symbol: O  # 96
  coordinates: [  0.833333333333333,  0.333333333333333,  0.500000000000000 ]
  mass: 15.999400
- symbol: O  # 97
  coordinates: [  0.166666666666667,  0.666666666666667,  0.500000000000000 ]
  mass: 15.999400
- symbol: O  # 98
  coordinates: [  0.500000000000000,  0.666666666666667,  0.500000000000000 ]
  mass: 15.999400
- symbol: O  # 99
  coordinates: [  0.833333333333333,  0.666666666666667,  0.500000000000000 ]
  mass: 15.999400
- symbol: O  # 100
  coordinates: [  0.166666666666667,  0.000000000000000,  0.833333333333333 ]
  mass: 15.999400
- symbol: O  # 101
  coordinates: [  0.500000000000000,  0.000000000000000,  0.833333333333333 ]
  mass: 15.999400
- symbol: O  # 102
  coordinates: [  0.833333333333333,  0.000000000000000,  0.833333333333333 ]
  mass: 15.999400
- symbol: O  # 103
  coordinates: [  0.166666666666667,  0.333333333333333,  0.833333333333333 ]
  mass: 15.999400
- symbol: O  # 104
  coordinates: [  0.500000000000000,  0.333333333333333,  0.833333333333333 ]
  mass: 15.999400
- symbol: O  # 105
  coordinates: [  0.833333333333333,  0.333333333333333,  0.833333333333333 ]
  mass: 15.999400
- symbol: O  # 106
  coordinates: [  0.166666666666667,  0.666666666666667,  0.833333333333333 ]
  mass: 15.999400
- symbol: O  # 107
  coordinates: [  0.500000000000000,  0.666666666666667,  0.833333333333333 ]
  mass: 15.999400
- symbol: O  # 108
  coordinates: [  0.833333333333333,  0.666666666666667,  0.833333333333333 ]
  mass: 15.999400
- symbol: O  # 109
  coordinates: [  0.000000000000000,  0.166666666666667,  0.166666666666667 ]
  mass: 15.999400
- symbol: O  # 110
  coordinates: [  0.333333333333333,  0.166666666666667,  0.166666666666667 ]
  mass: 15.999400
- symbol: O  # 111
  coordinates: [  0.666666666666667,  0.166666666666667,  0.166666666666667 ]
  mass: 15.999400
- symbol: O  # 112
  coordinates: [  0.000000000000000,  0.500000000000000,  0.166666666666667 ]
  mass: 15.999400
- symbol: O  # 113
  coordinates: [  0.333333333333333,  0.500000000000000,  0.166666666666667 ]
  mass: 15.999400
- symbol: O  # 114
  coordinates: [  0.666666666666667,  0.500000000000000,  0.166666666666667 ]
  mass: 15.999400
- symbol: O  # 115
  coordinates: [  0.000000000000000,  0.833333333333333,  0.166666666666667 ]
  mass: 15.999400
- symbol: O  # 116
  coordinates: [  0.333333333333333,  0.833333333333333,  0.166666666666667 ]
  mass: 15.999400
- symbol: O  # 117
  coordinates: [  0.666666666666667,  0.833333333333333,  0.166666666666667 ]
  mass: 15.999400
- symbol: O  # 118
  coordinates: [  0.000000000000000,  0.166666666666667,  0.500000000000000 ]
  mass: 15.999400
- symbol: O  # 119
  coordinates: [  0.333333333333333,  0.166666666666667,  0.500000000000000 ]
  mass: 15.999400
- symbol: O  # 120
  coordinates: [  0.666666666666667,  0.166666666666667,  0.500000000000000 ]
  mass: 15.999400
- symbol: O  # 121
  coordinates: [  0.000000000000000,  0.500000000000000,  0.500000000000000 ]
  mass: 15.999400
- symbol: O  # 122
  coordinates: [  0.333333333333333,  0.500000000000000,  0.500000000000000 ]
  mass: 15.999400
- symbol: O  # 123
  coordinates: [  0.666666666666667,  0.500000000000000,  0.500000000000000 ]
  mass: 15.999400
- symbol: O  # 124
  coordinates: [  0.000000000000000,  0.833333333333333,  0.500000000000000 ]
  mass: 15.999400
- symbol: O  # 125
  coordinates: [  0.333333333333333,  0.833333333333333,  0.500000000000000 ]
  mass: 15.999400
- symbol: O  # 126
  coordinates: [  0.666666666666667,  0.833333333333333,  0.500000000000000 ]
  mass: 15.999400
- symbol: O  # 127
  coordinates: [  0.000000000000000,  0.166666666666667,  0.833333333333333 ]
  mass: 15.999400
- symbol: O  # 128
  coordinates: [  0.333333333333333,  0.166666666666667,  0.833333333333333 ]
  mass: 15.999400
- symbol: O  # 129
  coordinates: [  0.666666666666667,  0.166666666666667,  0.833333333333333 ]
  mass: 15.999400
- symbol: O  # 130
  coordinates: [  0.000000000000000,  0.500000000000000,  0.833333333333333 ]
  mass: 15.999400
- symbol: O  # 131
  coordinates: [  0.333333333333333,  0.500000000000000,  0.833333333333333 ]
  mass: 15.999400
- symbol: O  # 132
  coordinates: [  0.666666666666667,  0.500000000000000,  0.833333333333333 ]
  mass: 15.999400
- symbol: O  # 133
  coordinates: [  0.000000000000000,  0.833333333333333,  0.833333333333333 ]
  mass: 15.999400
- symbol: O  # 134
  coordinates: [  0.333333333333333,  0.833333333333333,  0.833333333333333 ]
  mass: 15.999400
- symbol: O  # 135
  coordinates: [  0.666666666666667,  0.833333333333333,  0.833333333333333 ]
  mass: 15.999400