nqpoint: 151    
natom:   5      
reciprocal_lattice:
- [   0.25173007,   0.00000000,   0.00000000 ] # a*
- [   0.00000000,   0.25173007,   0.00000000 ] # b*
- [   0.00000000,   0.00000000,   0.25173007 ] # c*
phonon:
- q-position: [    0.0000000,    0.0000000,    0.0000000 ]
  band:
  - # 1
    frequency:   -4.4685121361
  - # 2
    frequency:   -4.4685121361
  - # 3
    frequency:   -4.4685121361
  - # 4
    frequency:    0.0030685324
  - # 5
    frequency:    0.0030685324
  - # 6
    frequency:    0.0030685324
  - # 7
    frequency:    5.0799608249
  - # 8
    frequency:    5.0799608249
  - # 9
    frequency:    5.0799608249
  - # 10
    frequency:    9.2531031928
  - # 11
    frequency:    9.2531031928
  - # 12
    frequency:    9.2531031928
  - # 13
    frequency:   13.8510977574
  - # 14
    frequency:   13.8510977574
  - # 15
    frequency:   13.8510977574

- q-position: [    0.0000000,    0.0166667,    0.0000000 ]
  band:
  - # 1
    frequency:   -4.4652685219
  - # 2
    frequency:   -4.4652685219
  - # 3
    frequency:    0.1927377214
  - # 4
    frequency:    0.1927377214
  - # 5
    frequency:    0.2849577812
  - # 6
    frequency:    4.9296758588
  - # 7
    frequency:    5.0815251007
  - # 8
    frequency:    5.0815251007
  - # 9
    frequency:    9.2546018214
  - # 10
    frequency:    9.2546159437
  - # 11
    frequency:    9.2546159437
  - # 12
    frequency:   12.6427497930
  - # 13
    frequency:   13.8497930467
  - # 14
    frequency:   13.8497930467
  - # 15
    frequency:   17.9773701105

- q-position: [    0.0000000,    0.0333333,    0.0000000 ]
  band:
  - # 1
    frequency:   -4.4556196402
  - # 2
    frequency:   -4.4556196402
  - # 3
    frequency:    0.3849598521
  - # 4
    frequency:    0.3849598521
  - # 5
    frequency:    0.5677837479
  - # 6
    frequency:    4.9621505859
  - # 7
    frequency:    5.0862405964
  - # 8
    frequency:    5.0862405964
  - # 9
    frequency:    9.2590798420
  - # 10
    frequency:    9.2591527088
  - # 11
    frequency:    9.2591527088
  - # 12
    frequency:   12.6622231504
  - # 13
    frequency:   13.8458838254
  - # 14
    frequency:   13.8458838254
  - # 15
    frequency:   17.9805229802

- q-position: [    0.0000000,    0.0500000,    0.0000000 ]
  band:
  - # 1
    frequency:   -4.4398075015
  - # 2
    frequency:   -4.4398075015
  - # 3
    frequency:    0.5762009255
  - # 4
    frequency:    0.5762009255
  - # 5
    frequency:    0.8464175528
  - # 6
    frequency:    5.0157724546
  - # 7
    frequency:    5.0941744855
  - # 8
    frequency:    5.0941744855
  - # 9
    frequency:    9.2664839243
  - # 10
    frequency:    9.2667088330
  - # 11
    frequency:    9.2667088330
  - # 12
    frequency:   12.6945140325
  - # 13
    frequency:   13.8393849312
  - # 14
    frequency:   13.8393849312
  - # 15
    frequency:   17.9856803395

- q-position: [    0.0000000,    0.0666667,    0.0000000 ]
  band:
  - # 1
    frequency:   -4.4182226795
  - # 2
    frequency:   -4.4182226795
  - # 3
    frequency:    0.7658846865
  - # 4
    frequency:    0.7658846865
  - # 5
    frequency:    1.1189560584
  - # 6
    frequency:    5.0897732811
  - # 7
    frequency:    5.1054358235
  - # 8
    frequency:    5.1054358235
  - # 9
    frequency:    9.2767260637
  - # 10
    frequency:    9.2772759065
  - # 11
    frequency:    9.2772759065
  - # 12
    frequency:   12.7393784829
  - # 13
    frequency:   13.8303214436
  - # 14
    frequency:   13.8303214436
  - # 15
    frequency:   17.9926970161

- q-position: [    0.0000000,    0.0833333,    0.0000000 ]
  band:
  - # 1
    frequency:   -4.3913856512
  - # 2
    frequency:   -4.3913856512
  - # 3
    frequency:    0.9533565288
  - # 4
    frequency:    0.9533565288
  - # 5
    frequency:    1.3837214803
  - # 6
    frequency:    5.1201707589
  - # 7
    frequency:    5.1201707589
  - # 8
    frequency:    5.1830543052
  - # 9
    frequency:    9.2896848773
  - # 10
    frequency:    9.2908407508
  - # 11
    frequency:    9.2908407508
  - # 12
    frequency:   12.7964807976
  - # 13
    frequency:   13.8187292174
  - # 14
    frequency:   13.8187292174
  - # 15
    frequency:   18.0013717811

- q-position: [    0.0000000,    0.1000000,    0.0000000 ]
  band:
  - # 1
    frequency:   -4.3599218627
  - # 2
    frequency:   -4.3599218627
  - # 3
    frequency:    1.1378642692
  - # 4
    frequency:    1.1378642692
  - # 5
    frequency:    1.6393240527
  - # 6
    frequency:    5.1385549772
  - # 7
    frequency:    5.1385549772
  - # 8
    frequency:    5.2941746077
  - # 9
    frequency:    9.3052073726
  - # 10
    frequency:    9.3073839313
  - # 11
    frequency:    9.3073839313
  - # 12
    frequency:   12.8653984901
  - # 13
    frequency:   13.8046556430
  - # 14
    frequency:   13.8046556430
  - # 15
    frequency:   18.0114495569

- q-position: [    0.0000000,    0.1166667,    0.0000000 ]
  band:
  - # 1
    frequency:   -4.3245320130
  - # 2
    frequency:   -4.3245320130
  - # 3
    frequency:    1.3185533075
  - # 4
    frequency:    1.3185533075
  - # 5
    frequency:    1.8847066042
  - # 6
    frequency:    5.1607826201
  - # 7
    frequency:    5.1607826201
  - # 8
    frequency:    5.4213519982
  - # 9
    frequency:    9.3231111466
  - # 10
    frequency:    9.3268777298
  - # 11
    frequency:    9.3268777298
  - # 12
    frequency:   12.9456275446
  - # 13
    frequency:   13.7881606477
  - # 14
    frequency:   13.7881606477
  - # 15
    frequency:   18.0226245156

- q-position: [    0.0000000,    0.1333333,    0.0000000 ]
  band:
  - # 1
    frequency:   -4.2859596927
  - # 2
    frequency:   -4.2859596927
  - # 3
    frequency:    1.4944753963
  - # 4
    frequency:    1.4944753963
  - # 5
    frequency:    2.1191630995
  - # 6
    frequency:    5.1870508790
  - # 7
    frequency:    5.1870508790
  - # 8
    frequency:    5.5624848678
  - # 9
    frequency:    9.3431869642
  - # 10
    frequency:    9.3492835037
  - # 11
    frequency:    9.3492835037
  - # 12
    frequency:   13.0365873014
  - # 13
    frequency:   13.7693179541
  - # 14
    frequency:   13.7693179541
  - # 15
    frequency:   18.0345442380

- q-position: [    0.0000000,    0.1500000,    0.0000000 ]
  band:
  - # 1
    frequency:   -4.2449590105
  - # 2
    frequency:   -4.2449590105
  - # 3
    frequency:    1.6646119686
  - # 4
    frequency:    1.6646119686
  - # 5
    frequency:    2.3423261007
  - # 6
    frequency:    5.2175396409
  - # 7
    frequency:    5.2175396409
  - # 8
    frequency:    5.7152001678
  - # 9
    frequency:    9.3652016580
  - # 10
    frequency:    9.3745483568
  - # 11
    frequency:    9.3745483568
  - # 12
    frequency:   13.1376243491
  - # 13
    frequency:   13.7482166092
  - # 14
    frequency:   13.7482166092
  - # 15
    frequency:   18.0468151081

- q-position: [    0.0000000,    0.1666667,    0.0000000 ]
  band:
  - # 1
    frequency:   -4.2022649913
  - # 2
    frequency:   -4.2022649913
  - # 3
    frequency:    1.8279116889
  - # 4
    frequency:    1.8279116889
  - # 5
    frequency:    2.5541238910
  - # 6
    frequency:    5.2523860574
  - # 7
    frequency:    5.2523860574
  - # 8
    frequency:    5.8769268232
  - # 9
    frequency:    9.3889012868
  - # 10
    frequency:    9.4026010535
  - # 11
    frequency:    9.4026010535
  - # 12
    frequency:   13.2480149206
  - # 13
    frequency:   13.7249628016
  - # 14
    frequency:   13.7249628016
  - # 15
    frequency:   18.0590091205

- q-position: [    0.0000000,    0.1833333,    0.0000000 ]
  band:
  - # 1
    frequency:   -4.1585692062
  - # 2
    frequency:   -4.1585692062
  - # 3
    frequency:    1.9833399599
  - # 4
    frequency:    1.9833399599
  - # 5
    frequency:    2.7547143923
  - # 6
    frequency:    5.2916547979
  - # 7
    frequency:    5.2916547979
  - # 8
    frequency:    6.0449875412
  - # 9
    frequency:    9.4140144906
  - # 10
    frequency:    9.4333471373
  - # 11
    frequency:    9.4333471373
  - # 12
    frequency:   13.3669654605
  - # 13
    frequency:   13.6996819724
  - # 14
    frequency:   13.6996819724
  - # 15
    frequency:   18.0706722655

- q-position: [    0.0000000,    0.2000000,    0.0000000 ]
  band:
  - # 1
    frequency:   -4.1145023086
  - # 2
    frequency:   -4.1145023086
  - # 3
    frequency:    2.1299359914
  - # 4
    frequency:    2.1299359914
  - # 5
    frequency:    2.9444073960
  - # 6
    frequency:    5.3353060163
  - # 7
    frequency:    5.3353060163
  - # 8
    frequency:    6.2166976490
  - # 9
    frequency:    9.4402559777
  - # 10
    frequency:    9.4666632566
  - # 11
    frequency:    9.4666632566
  - # 12
    frequency:   13.4936112550
  - # 13
    frequency:   13.6725212222
  - # 14
    frequency:   13.6725212222
  - # 15
    frequency:   18.0813346437

- q-position: [    0.0000000,    0.2166667,    0.0000000 ]
  band:
  - # 1
    frequency:   -4.0706240964
  - # 2
    frequency:   -4.0706240964
  - # 3
    frequency:    2.2668711596
  - # 4
    frequency:    2.2668711596
  - # 5
    frequency:    3.1235874215
  - # 6
    frequency:    5.3831645032
  - # 7
    frequency:    5.3831645032
  - # 8
    frequency:    6.3894588104
  - # 9
    frequency:    9.4673300840
  - # 10
    frequency:    9.5023907674
  - # 11
    frequency:    9.5023907674
  - # 12
    frequency:   13.6270132286
  - # 13
    frequency:   13.6436519962
  - # 14
    frequency:   13.6436519962
  - # 15
    frequency:   18.0905224425

- q-position: [    0.0000000,    0.2333333,    0.0000000 ]
  band:
  - # 1
    frequency:   -4.0274206405
  - # 2
    frequency:   -4.0274206405
  - # 3
    frequency:    2.3935012582
  - # 4
    frequency:    2.3935012582
  - # 5
    frequency:    3.2926469835
  - # 6
    frequency:    5.4348946812
  - # 7
    frequency:    5.4348946812
  - # 8
    frequency:    6.5608379857
  - # 9
    frequency:    9.4949343476
  - # 10
    frequency:    9.5403287782
  - # 11
    frequency:    9.5403287782
  - # 12
    frequency:   13.6132730070
  - # 13
    frequency:   13.6132730070
  - # 14
    frequency:   13.7661532031
  - # 15
    frequency:   18.0977718966

- q-position: [    0.0000000,    0.2500000,    0.0000000 ]
  band:
  - # 1
    frequency:   -3.9853071915
  - # 2
    frequency:   -3.9853071915
  - # 3
    frequency:    2.5094053574
  - # 4
    frequency:    2.5094053574
  - # 5
    frequency:    3.4519357818
  - # 6
    frequency:    5.4899864636
  - # 7
    frequency:    5.4899864636
  - # 8
    frequency:    6.7286262196
  - # 9
    frequency:    9.5227630471
  - # 10
    frequency:    9.5802269119
  - # 11
    frequency:    9.5802269119
  - # 12
    frequency:   13.5816133192
  - # 13
    frequency:   13.5816133192
  - # 14
    frequency:   13.9099280247
  - # 15
    frequency:   18.1026453477

- q-position: [    0.0000000,    0.2666667,    0.0000000 ]
  band:
  - # 1
    frequency:   -3.9446351145
  - # 2
    frequency:   -3.9446351145
  - # 3
    frequency:    2.6144056228
  - # 4
    frequency:    2.6144056228
  - # 5
    frequency:    3.6017271492
  - # 6
    frequency:    5.5477560560
  - # 7
    frequency:    5.5477560560
  - # 8
    frequency:    6.8908760029
  - # 9
    frequency:    9.5505106584
  - # 10
    frequency:    9.6217781981
  - # 11
    frequency:    9.6217781981
  - # 12
    frequency:   13.5489354692
  - # 13
    frequency:   13.5489354692
  - # 14
    frequency:   14.0571429797
  - # 15
    frequency:   18.1047495206

- q-position: [    0.0000000,    0.2833333,    0.0000000 ]
  band:
  - # 1
    frequency:   -3.9057010406
  - # 2
    frequency:   -3.9057010406
  - # 3
    frequency:    2.7085654676
  - # 4
    frequency:    2.7085654676
  - # 5
    frequency:    3.7422001346
  - # 6
    frequency:    5.6073634746
  - # 7
    frequency:    5.6073634746
  - # 8
    frequency:    7.0459189478
  - # 9
    frequency:    9.5778751914
  - # 10
    frequency:    9.6646126449
  - # 11
    frequency:    9.6646126449
  - # 12
    frequency:   13.5155384289
  - # 13
    frequency:   13.5155384289
  - # 14
    frequency:   14.2065048337
  - # 15
    frequency:   18.1037561314

- q-position: [    0.0000000,    0.3000000,    0.0000000 ]
  band:
  - # 1
    frequency:   -3.8687566504
  - # 2
    frequency:   -3.8687566504
  - # 3
    frequency:    2.7921671376
  - # 4
    frequency:    2.7921671376
  - # 5
    frequency:    3.8734341313
  - # 6
    frequency:    5.6678454206
  - # 7
    frequency:    5.6678454206
  - # 8
    frequency:    7.1923670774
  - # 9
    frequency:    9.6045613735
  - # 10
    frequency:    9.7082921806
  - # 11
    frequency:    9.7082921806
  - # 12
    frequency:   13.4817601319
  - # 13
    frequency:   13.4817601319
  - # 14
    frequency:   14.3566146691
  - # 15
    frequency:   18.0994249270

- q-position: [    0.0000000,    0.3166667,    0.0000000 ]
  band:
  - # 1
    frequency:   -3.8340178990
  - # 2
    frequency:   -3.8340178990
  - # 3
    frequency:    2.8656732172
  - # 4
    frequency:    2.8656732172
  - # 5
    frequency:    3.9954126769
  - # 6
    frequency:    5.7281591685
  - # 7
    frequency:    5.7281591685
  - # 8
    frequency:    7.3291014640
  - # 9
    frequency:    9.6302836548
  - # 10
    frequency:    9.7523077674
  - # 11
    frequency:    9.7523077674
  - # 12
    frequency:   13.4479791823
  - # 13
    frequency:   13.4479791823
  - # 14
    frequency:   14.5059605279
  - # 15
    frequency:   18.0916291774

- q-position: [    0.0000000,    0.3333333,    0.0000000 ]
  band:
  - # 1
    frequency:   -3.8016729185
  - # 2
    frequency:   -3.8016729185
  - # 3
    frequency:    2.9296786342
  - # 4
    frequency:    2.9296786342
  - # 5
    frequency:    4.1080334570
  - # 6
    frequency:    5.7872312807
  - # 7
    frequency:    5.7872312807
  - # 8
    frequency:    7.4552517135
  - # 9
    frequency:    9.6547690148
  - # 10
    frequency:    9.7960795614
  - # 11
    frequency:    9.7960795614
  - # 12
    frequency:   13.4146152400
  - # 13
    frequency:   13.4146152400
  - # 14
    frequency:   14.6529098140
  - # 15
    frequency:   18.0803834270

- q-position: [    0.0000000,    0.3500000,    0.0000000 ]
  band:
  - # 1
    frequency:   -3.7718882195
  - # 2
    frequency:   -3.7718882195
  - # 3
    frequency:    2.9848600868
  - # 4
    frequency:    2.9848600868
  - # 5
    frequency:    4.2111222064
  - # 6
    frequency:    5.8440047457
  - # 7
    frequency:    5.8440047457
  - # 8
    frequency:    7.5701692830
  - # 9
    frequency:    9.6777595551
  - # 10
    frequency:    9.8389610108
  - # 11
    frequency:    9.8389610108
  - # 12
    frequency:   13.3821274658
  - # 13
    frequency:   13.3821274658
  - # 14
    frequency:   14.7957016379
  - # 15
    frequency:   18.0658728433

- q-position: [    0.0000000,    0.3666667,    0.0000000 ]
  band:
  - # 1
    frequency:   -3.7448131065
  - # 2
    frequency:   -3.7448131065
  - # 3
    frequency:    3.0319286458
  - # 4
    frequency:    3.0319286458
  - # 5
    frequency:    4.3044488551
  - # 6
    frequency:    5.8974793936
  - # 7
    frequency:    5.8974793936
  - # 8
    frequency:    7.6733970711
  - # 9
    frequency:    9.6990148703
  - # 10
    frequency:    9.8802477156
  - # 11
    frequency:    9.8802477156
  - # 12
    frequency:   13.3510103086
  - # 13
    frequency:   13.3510103086
  - # 14
    frequency:   14.9324400332
  - # 15
    frequency:   18.0484825672

- q-position: [    0.0000000,    0.3833333,    0.0000000 ]
  band:
  - # 1
    frequency:   -3.7205824261
  - # 2
    frequency:   -3.7205824261
  - # 3
    frequency:    3.0715892674
  - # 4
    frequency:    3.0715892674
  - # 5
    frequency:    4.3877447782
  - # 6
    frequency:    5.9467425246
  - # 7
    frequency:    5.9467425246
  - # 8
    frequency:    7.7646372359
  - # 9
    frequency:    9.7183141877
  - # 10
    frequency:    9.9191917069
  - # 11
    frequency:    9.9191917069
  - # 12
    frequency:   13.3217858974
  - # 13
    frequency:   13.3217858974
  - # 14
    frequency:   15.0610905283
  - # 15
    frequency:   18.0288238217

- q-position: [    0.0000000,    0.4000000,    0.0000000 ]
  band:
  - # 1
    frequency:   -3.6993178863
  - # 2
    frequency:   -3.6993178863
  - # 3
    frequency:    3.1045088439
  - # 4
    frequency:    3.1045088439
  - # 5
    frequency:    4.4607203527
  - # 6
    frequency:    5.9909888682
  - # 7
    frequency:    5.9909888682
  - # 8
    frequency:    7.8437188110
  - # 9
    frequency:    9.7354582766
  - # 10
    frequency:    9.9550215025
  - # 11
    frequency:    9.9550215025
  - # 12
    frequency:   13.2949923899
  - # 13
    frequency:   13.2949923899
  - # 14
    frequency:   15.1794851618
  - # 15
    frequency:   18.0077509191

- q-position: [    0.0000000,    0.4166667,    0.0000000 ]
  band:
  - # 1
    frequency:   -3.6811282489
  - # 2
    frequency:   -3.6811282489
  - # 3
    frequency:    3.1312927352
  - # 4
    frequency:    3.1312927352
  - # 5
    frequency:    4.5230822167
  - # 6
    frequency:    6.0295307369
  - # 7
    frequency:    6.0295307369
  - # 8
    frequency:    7.9105663916
  - # 9
    frequency:    9.7502711235
  - # 10
    frequency:    9.9869678323
  - # 11
    frequency:    9.9869678323
  - # 12
    frequency:   13.2711679106
  - # 13
    frequency:   13.2711679106
  - # 14
    frequency:   15.2853446652
  - # 15
    frequency:   17.9863597369

- q-position: [    0.0000000,    0.4333333,    0.0000000 ]
  band:
  - # 1
    frequency:   -3.6661087128
  - # 2
    frequency:   -3.6661087128
  - # 3
    frequency:    3.1524686750
  - # 4
    frequency:    3.1524686750
  - # 5
    frequency:    4.5745497131
  - # 6
    frequency:    6.0618003334
  - # 7
    frequency:    6.0618003334
  - # 8
    frequency:    7.9651709367
  - # 9
    frequency:    9.7626013767
  - # 10
    frequency:   10.0142942860
  - # 11
    frequency:   10.0142942860
  - # 12
    frequency:   13.2508302144
  - # 13
    frequency:   13.2508302144
  - # 14
    frequency:   15.3763303516
  - # 15
    frequency:   17.9659545363

- q-position: [    0.0000000,    0.4500000,    0.0000000 ]
  band:
  - # 1
    frequency:   -3.6543397966
  - # 2
    frequency:   -3.6543397966
  - # 3
    frequency:    3.1684764774
  - # 4
    frequency:    3.1684764774
  - # 5
    frequency:    4.6148700199
  - # 6
    frequency:    6.0873466363
  - # 7
    frequency:    6.0873466363
  - # 8
    frequency:    8.0075635567
  - # 9
    frequency:    9.7723235611
  - # 10
    frequency:   10.0363313244
  - # 11
    frequency:   10.0363313244
  - # 12
    frequency:   13.2344529434
  - # 13
    frequency:   13.2344529434
  - # 14
    frequency:   15.4501397827
  - # 15
    frequency:   17.9479685997

- q-position: [    0.0000000,    0.4666667,    0.0000000 ]
  band:
  - # 1
    frequency:   -3.6458860054
  - # 2
    frequency:   -3.6458860054
  - # 3
    frequency:    3.1796619382
  - # 4
    frequency:    3.1796619382
  - # 5
    frequency:    4.6438314640
  - # 6
    frequency:    6.1058292842
  - # 7
    frequency:    6.1058292842
  - # 8
    frequency:    8.0377930187
  - # 9
    frequency:    9.7793390667
  - # 10
    frequency:   10.0525112264
  - # 11
    frequency:   10.0525112264
  - # 12
    frequency:   13.2224402097
  - # 13
    frequency:   13.2224402097
  - # 14
    frequency:   15.5046552051
  - # 15
    frequency:   17.9338293870

- q-position: [    0.0000000,    0.4833333,    0.0000000 ]
  band:
  - # 1
    frequency:   -3.6407945242
  - # 2
    frequency:   -3.6407945242
  - # 3
    frequency:    3.1862735226
  - # 4
    frequency:    3.1862735226
  - # 5
    frequency:    4.6612745272
  - # 6
    frequency:    6.1170115830
  - # 7
    frequency:    6.1170115830
  - # 8
    frequency:    8.0559075798
  - # 9
    frequency:    9.7835769138
  - # 10
    frequency:   10.0624007861
  - # 11
    frequency:   10.0624007861
  - # 12
    frequency:   13.2151020465
  - # 13
    frequency:   13.2151020465
  - # 14
    frequency:   15.5381376429
  - # 15
    frequency:   17.9247751275

- q-position: [    0.0000000,    0.5000000,    0.0000000 ]
  band:
  - # 1
    frequency:   -3.6390941382
  - # 2
    frequency:   -3.6390941382
  - # 3
    frequency:    3.1884607510
  - # 4
    frequency:    3.1884607510
  - # 5
    frequency:    4.6671000875
  - # 6
    frequency:    6.1207543204
  - # 7
    frequency:    6.1207543204
  - # 8
    frequency:    8.0619416395
  - # 9
    frequency:    9.7849942977
  - # 10
    frequency:   10.0657281960
  - # 11
    frequency:   10.0657281960
  - # 12
    frequency:   13.2126337509
  - # 13
    frequency:   13.2126337509
  - # 14
    frequency:   15.5494335527
  - # 15
    frequency:   17.9216558399

- q-position: [    0.0166667,    0.5000000,    0.0000000 ]
  band:
  - # 1
    frequency:   -3.6365450421
  - # 2
    frequency:   -3.6022223960
  - # 3
    frequency:    3.1876864694
  - # 4
    frequency:    3.1884946303
  - # 5
    frequency:    4.6703794674
  - # 6
    frequency:    6.1258315297
  - # 7
    frequency:    6.1298842525
  - # 8
    frequency:    8.0591798847
  - # 9
    frequency:    9.7327962079
  - # 10
    frequency:   10.0661931642
  - # 11
    frequency:   10.1163512363
  - # 12
    frequency:   13.2061692443
  - # 13
    frequency:   13.2100379910
  - # 14
    frequency:   15.5493760479
  - # 15
    frequency:   17.9407945668

- q-position: [    0.0333333,    0.5000000,    0.0000000 ]
  band:
  - # 1
    frequency:   -3.6289592373
  - # 2
    frequency:   -3.4897059086
  - # 3
    frequency:    3.1854627046
  - # 4
    frequency:    3.1885957468
  - # 5
    frequency:    4.6806199891
  - # 6
    frequency:    6.1411738677
  - # 7
    frequency:    6.1571762695
  - # 8
    frequency:    8.0504039870
  - # 9
    frequency:    9.6265508590
  - # 10
    frequency:   10.0675828936
  - # 11
    frequency:   10.2183969639
  - # 12
    frequency:   13.1872073059
  - # 13
    frequency:   13.2022495759
  - # 14
    frequency:   15.5489406092
  - # 15
    frequency:   17.9975970375

- q-position: [    0.0500000,    0.5000000,    0.0000000 ]
  band:
  - # 1
    frequency:   -3.6165178602
  - # 2
    frequency:   -3.2954263739
  - # 3
    frequency:    3.1820735597
  - # 4
    frequency:    3.1887625498
  - # 5
    frequency:    4.6991411030
  - # 6
    frequency:    6.1670806700
  - # 7
    frequency:    6.2023391626
  - # 8
    frequency:    8.0341463858
  - # 9
    frequency:    9.5067138721
  - # 10
    frequency:   10.0698819177
  - # 11
    frequency:   10.3329852060
  - # 12
    frequency:   13.1569415783
  - # 13
    frequency:   13.1892651314
  - # 14
    frequency:   15.5474153019
  - # 15
    frequency:   18.0902826858

- q-position: [    0.0666667,    0.5000000,    0.0000000 ]
  band:
  - # 1
    frequency:   -3.5995120625
  - # 2
    frequency:   -3.0074361248
  - # 3
    frequency:    3.1779531926
  - # 4
    frequency:    3.1889924964
  - # 5
    frequency:    4.7285294125
  - # 6
    frequency:    6.2039528624
  - # 7
    frequency:    6.2648946829
  - # 8
    frequency:    8.0079981589
  - # 9
    frequency:    9.3855424038
  - # 10
    frequency:   10.0730646597
  - # 11
    frequency:   10.4504563102
  - # 12
    frequency:   13.1170705981
  - # 13
    frequency:   13.1710791426
  - # 14
    frequency:   15.5438257732
  - # 15
    frequency:   18.2160782263

- q-position: [    0.0833333,    0.5000000,    0.0000000 ]
  band:
  - # 1
    frequency:   -3.5783279331
  - # 2
    frequency:   -2.6033308283
  - # 3
    frequency:    3.1736416593
  - # 4
    frequency:    3.1892821131
  - # 5
    frequency:    4.7732635155
  - # 6
    frequency:    6.2521813618
  - # 7
    frequency:    6.3441881706
  - # 8
    frequency:    7.9687537901
  - # 9
    frequency:    9.2690590054
  - # 10
    frequency:   10.0770957285
  - # 11
    frequency:   10.5682701320
  - # 12
    frequency:   13.0694911580
  - # 13
    frequency:   13.1476841254
  - # 14
    frequency:   15.5371372746
  - # 15
    frequency:   18.3714783840

- q-position: [    0.1000000,    0.5000000,    0.0000000 ]
  band:
  - # 1
    frequency:   -3.5534273391
  - # 2
    frequency:   -2.0341436077
  - # 3
    frequency:    3.1697514070
  - # 4
    frequency:    3.1896270785
  - # 5
    frequency:    4.8406394362
  - # 6
    frequency:    6.3120481811
  - # 7
    frequency:    6.4394033002
  - # 8
    frequency:    7.9128028602
  - # 9
    frequency:    9.1619086190
  - # 10
    frequency:   10.0819303299
  - # 11
    frequency:   10.6857604111
  - # 12
    frequency:   13.0160444385
  - # 13
    frequency:   13.1190708819
  - # 14
    frequency:   15.5263976271
  - # 15
    frequency:   18.5525449306

- q-position: [    0.1166667,    0.5000000,    0.0000000 ]
  band:
  - # 1
    frequency:   -3.5253263695
  - # 2
    frequency:   -1.1221932108
  - # 3
    frequency:    3.1669737573
  - # 4
    frequency:    3.1900223233
  - # 5
    frequency:    4.9418274452
  - # 6
    frequency:    6.3836744877
  - # 7
    frequency:    6.5495806330
  - # 8
    frequency:    7.8368814753
  - # 9
    frequency:    9.0678534836
  - # 10
    frequency:   10.0875147842
  - # 11
    frequency:   10.8028853992
  - # 12
    frequency:   12.9583688120
  - # 13
    frequency:   13.0852288558
  - # 14
    frequency:   15.5108014767
  - # 15
    frequency:   18.7551879834

- q-position: [    0.1333333,    0.5000000,    0.0000000 ]
  band:
  - # 1
    frequency:   -3.4945731839
  - # 2
    frequency:    1.2862862396
  - # 3
    frequency:    3.1661786135
  - # 4
    frequency:    3.1904621455
  - # 5
    frequency:    5.0921159530
  - # 6
    frequency:    6.4670450279
  - # 7
    frequency:    6.6736393928
  - # 8
    frequency:    7.7390468867
  - # 9
    frequency:    8.9891922274
  - # 10
    frequency:   10.0937871453
  - # 11
    frequency:   10.9198283528
  - # 12
    frequency:   12.8978622092
  - # 13
    frequency:   13.0461466132
  - # 14
    frequency:   15.4896969462
  - # 15
    frequency:   18.9753868157

- q-position: [    0.1500000,    0.5000000,    0.0000000 ]
  band:
  - # 1
    frequency:   -3.4617269710
  - # 2
    frequency:    2.0830475259
  - # 3
    frequency:    3.1687361221
  - # 4
    frequency:    3.1909403352
  - # 5
    frequency:    5.3077974207
  - # 6
    frequency:    6.5621524782
  - # 7
    frequency:    6.8104016002
  - # 8
    frequency:    7.6193727770
  - # 9
    frequency:    8.9262289564
  - # 10
    frequency:   10.1006779130
  - # 11
    frequency:   11.0368353850
  - # 12
    frequency:   12.8357276185
  - # 13
    frequency:   13.0018124770
  - # 14
    frequency:   15.4625661128
  - # 15
    frequency:   19.2093323998

- q-position: [    0.1666667,    0.5000000,    0.0000000 ]
  band:
  - # 1
    frequency:   -3.4273394276
  - # 2
    frequency:    2.5562570072
  - # 3
    frequency:    3.1774153037
  - # 4
    frequency:    3.1914503059
  - # 5
    frequency:    5.5972289538
  - # 6
    frequency:    6.6693929461
  - # 7
    frequency:    6.9586174469
  - # 8
    frequency:    7.4799106544
  - # 9
    frequency:    8.8774276090
  - # 10
    frequency:   10.1081108276
  - # 11
    frequency:   11.1541388260
  - # 12
    frequency:   12.7730687033
  - # 13
    frequency:   12.9522153595
  - # 14
    frequency:   15.4290021642
  - # 15
    frequency:   19.4534962811

- q-position: [    0.1833333,    0.5000000,    0.0000000 ]
  band:
  - # 1
    frequency:   -3.3919397306
  - # 2
    frequency:    2.8425470529
  - # 3
    frequency:    3.1919852261
  - # 4
    frequency:    3.1984473246
  - # 5
    frequency:    5.9506144965
  - # 6
    frequency:    6.7907177287
  - # 7
    frequency:    7.1169906521
  - # 8
    frequency:    7.3241395293
  - # 9
    frequency:    8.8401837961
  - # 10
    frequency:   10.1160037396
  - # 11
    frequency:   11.2719191998
  - # 12
    frequency:   12.7110090409
  - # 13
    frequency:   12.8973458488
  - # 14
    frequency:   15.3886938568
  - # 15
    frequency:   19.7046429296

- q-position: [    0.2000000,    0.5000000,    0.0000000 ]
  band:
  - # 1
    frequency:   -3.3560234794
  - # 2
    frequency:    2.9922089690
  - # 3
    frequency:    3.1925381494
  - # 4
    frequency:    3.2403296548
  - # 5
    frequency:    6.3367320089
  - # 6
    frequency:    6.9336762168
  - # 7
    frequency:    7.1571890822
  - # 8
    frequency:    7.2842025303
  - # 9
    frequency:    8.8116727234
  - # 10
    frequency:   10.1242695402
  - # 11
    frequency:   11.3902886339
  - # 12
    frequency:   12.6508188611
  - # 13
    frequency:   12.8371976266
  - # 14
    frequency:   15.3414193984
  - # 15
    frequency:   19.9598061139

- q-position: [    0.2166667,    0.5000000,    0.0000000 ]
  band:
  - # 1
    frequency:   -3.3200456125
  - # 2
    frequency:    3.0544148145
  - # 3
    frequency:    3.1931021373
  - # 4
    frequency:    3.2933813355
  - # 5
    frequency:    6.6884271612
  - # 6
    frequency:    6.9905573067
  - # 7
    frequency:    7.1313599687
  - # 8
    frequency:    7.4589336208
  - # 9
    frequency:    8.7893888856
  - # 10
    frequency:   10.1328171440
  - # 11
    frequency:   11.5092886576
  - # 12
    frequency:   12.5940418700
  - # 13
    frequency:   12.7717693271
  - # 14
    frequency:   15.2870478385
  - # 15
    frequency:   20.2162478556

- q-position: [    0.2333333,    0.5000000,    0.0000000 ]
  band:
  - # 1
    frequency:   -3.2844169179
  - # 2
    frequency:    3.0793140533
  - # 3
    frequency:    3.1936703719
  - # 4
    frequency:    3.3342921277
  - # 5
    frequency:    6.7448207948
  - # 6
    frequency:    7.0137115114
  - # 7
    frequency:    7.4360155021
  - # 8
    frequency:    7.6398819352
  - # 9
    frequency:    8.7713548670
  - # 10
    frequency:   10.1415525093
  - # 11
    frequency:   11.6288995413
  - # 12
    frequency:   12.5426187625
  - # 13
    frequency:   12.7010669912
  - # 14
    frequency:   15.2255448706
  - # 15
    frequency:   20.4714144060

- q-position: [    0.2500000,    0.5000000,    0.0000000 ]
  band:
  - # 1
    frequency:   -3.2495035057
  - # 2