14.399652
3.1246465267 0.0 0.0 0.0 3.1246465268 0.0 0.0 0.0 3.1246465275
1.580212010 0.0 0.0 0.0 1.580212010 0.0 0.0 0.0 1.58021201
4.189033400 0.0 0.0 0.0 4.189033400 0.0 0.0 0.0 4.18903340
-1.04089232 0.0 0.0 0.0 -1.04089232 0.0 0.0 0.0 -3.6874608556
