5000
3

   1
    0.01000000000000     0.00000000000000     0.00000000000000
    -0.08238834464604    -0.00000000000082    -0.00000000000087
     0.01119627798592    -0.00000000000020    -0.00000000000021
     0.00058226934696    -0.00000000000014    -0.00000000000014
     0.00011386895546    -0.00000000000023    -0.00000000000022
     0.00005208387383    -0.00000000000016    -0.00000000000020
     0.00004518440392    -0.00000000000019    -0.00000000000027
     0.00005201568085    -0.00000000000015    -0.00000000000016
     0.00011352468537    -0.00000000000015    -0.00000000000021
     0.00057846596823    -0.00000000000018    -0.00000000000020
     0.01108429734539    -0.00000000000015    -0.00000000000018
    -0.00366783717348    -0.00002136346016    -0.00000000000019
     0.00129884825481     0.00193266626769    -0.00000000000015
     0.00025131995114     0.00017548733070    -0.00000000000016
     0.00008040964316     0.00003056064678    -0.00000000000021
     0.00004665509788     0.00000582665227    -0.00000000000020
     0.00004286713552     0.00000001204470    -0.00000000000017
     0.00004662334356    -0.00000579645005    -0.00000000000017
     0.00008021730852    -0.00003041620677    -0.00000000000014
     0.00025040830472    -0.00017451449821    -0.00000000000022
     0.00129484400708    -0.00192219634042    -0.00000000000019
    -0.00018698049275    -0.00000081295514    -0.00000000000012
    -0.00004028827540     0.00017501746055    -0.00000000000016
     0.00004712045308     0.00008756308035    -0.00000000000029
     0.00003707463694     0.00002368046783    -0.00000000000019
     0.00003684229711     0.00000582429405    -0.00000000000021
     0.00003849862960     0.00000001421552    -0.00000000000017
     0.00003683665330    -0.00000578924731    -0.00000000000015
     0.00003706375585    -0.00002359689618    -0.00000000000020
     0.00004713724185    -0.00008731983352    -0.00000000000016
    -0.00003967341044    -0.00017498109499    -0.00000000000019
    -0.00005867875192    -0.00000010090986    -0.00000000000020
    -0.00003373021932     0.00003045529217    -0.00000000000021
    -0.00000213618815     0.00002365221517    -0.00000000000019
     0.00001759110575     0.00001026039986    -0.00000000000016
     0.00003016535202     0.00000328124783    -0.00000000000020
     0.00003508899663     0.00000000908426    -0.00000000000020
     0.00003017993766    -0.00000325686708    -0.00000000000020
     0.00001761512712    -0.00001022478273    -0.00000000000016
    -0.00000207635805    -0.00002362499285    -0.00000000000015
    -0.00003362267248    -0.00003052144154    -0.00000000000019
    -0.00003735789501    -0.00000001592713    -0.00000000000018
    -0.00002822532256     0.00000580396731    -0.00000000000020
    -0.00000868105838     0.00000581067247    -0.00000000000021
     0.00001180491701     0.00000327425200    -0.00000000000020
     0.00002736598322     0.00000120387664    -0.00000000000024
     0.00003324772295     0.00000000478826    -0.00000000000023
     0.00002737953587    -0.00000119091980    -0.00000000000021
     0.00001183023281    -0.00000326385935    -0.00000000000021
    -0.00000864901802    -0.00000580289227    -0.00000000000021
    -0.00002819347567    -0.00000581922793    -0.00000000000019
    -0.00003404451691    -0.00000000000001    -0.00000000000026
    -0.00002709569323     0.00000000000005    -0.00000000000017
    -0.00000960817201     0.00000000000005    -0.00000000000016
     0.00001076823218     0.00000000000005    -0.00000000000019
     0.00002673694853     0.00000000000004    -0.00000000000023
     0.00003245841641     0.00000000000077     0.00000000000059
     0.00002674778602     0.00000000000005    -0.00000000000017
     0.00001079458962     0.00000000000002    -0.00000000000018
    -0.00000957888179     0.00000000000004    -0.00000000000021
    -0.00002707880247     0.00000000000003    -0.00000000000018
    -0.00003735789500     0.00000001592735    -0.00000000000015
    -0.00002822532254    -0.00000580396727    -0.00000000000017
    -0.00000868105840    -0.00000581067232    -0.00000000000015
     0.00001180491696    -0.00000327425190    -0.00000000000019
     0.00002736598323    -0.00000120387654    -0.00000000000020
     0.00003324772296    -0.00000000478821    -0.00000000000017
     0.00002737953587     0.00000119091991    -0.00000000000020
     0.00001183023284     0.00000326385947    -0.00000000000019
    -0.00000864901797     0.00000580289239    -0.00000000000021
    -0.00002819347569     0.00000581922800    -0.00000000000022
    -0.00005867875186     0.00000010090990    -0.00000000000019
    -0.00003373021933    -0.00003045529222    -0.00000000000014
    -0.00000213618822    -0.00002365221514    -0.00000000000019
     0.00001759110574    -0.00001026039992    -0.00000000000015
     0.00003016535203    -0.00000328124784    -0.00000000000020
     0.00003508899660    -0.00000000908430    -0.00000000000017
     0.00003017993769     0.00000325686704    -0.00000000000018
     0.00001761512721     0.00001022478274    -0.00000000000016
    -0.00000207635806     0.00002362499283    -0.00000000000018
    -0.00003362267250     0.00003052144151    -0.00000000000020
    -0.00018698049280     0.00000081295524    -0.00000000000018
    -0.00004028827545    -0.00017501746054    -0.00000000000021
     0.00004712045325    -0.00008756308044    -0.00000000000015
     0.00003707463691    -0.00002368046776    -0.00000000000014
     0.00003684229709    -0.00000582429402    -0.00000000000019
     0.00003849862958    -0.00000001421549    -0.00000000000020
     0.00003683665328     0.00000578924736    -0.00000000000019
     0.00003706375583     0.00002359689616    -0.00000000000017
     0.00004713724185     0.00008731983358    -0.00000000000013
    -0.00003967341044     0.00017498109501    -0.00000000000019
    -0.00366783717342     0.00002136346007    -0.00000000000018
     0.00129884825482    -0.00193266626783    -0.00000000000020
     0.00025131995111    -0.00017548733079    -0.00000000000020
     0.00008040964313    -0.00003056064688    -0.00000000000019
     0.00004665509790    -0.00000582665239    -0.00000000000019
     0.00004286713549    -0.00000001204475    -0.00000000000019
     0.00004662334357     0.00000579644994    -0.00000000000022
     0.00008021730857     0.00003041620665    -0.00000000000021
     0.00025040830476     0.00017451449807    -0.00000000000021
     0.00129484400705     0.00192219634027    -0.00000000000020
    -0.00366783717343    -0.00000000000015    -0.00002136346012
     0.00129884825481    -0.00000000000013     0.00193266626774
     0.00025131995113    -0.00000000000019     0.00017548733077
     0.00008040964317    -0.00000000000020     0.00003056064683
     0.00004665509789    -0.00000000000018     0.00000582665232
     0.00004286713554    -0.00000000000014     0.00000001204472
     0.00004662334355    -0.00000000000015    -0.00000579645005
     0.00008021730852    -0.00000000000013    -0.00003041620675
     0.00025040830477    -0.00000000000017    -0.00017451449814
     0.00129484400710    -0.00000000000016    -0.00192219634037
    -0.00071757156488    -0.00000489603189    -0.00000489603184
     0.00011342263054     0.00040389216186     0.00040389216188
     0.00011575195271     0.00009416135260     0.00009416135268
     0.00005896590626     0.00002169772975     0.00002169772982
     0.00004249581624     0.00000456888295     0.00000456888299
     0.00004105184685     0.00000000753092     0.00000000753097
     0.00004247362723    -0.00000453835347    -0.00000453835344
     0.00005889152597    -0.00002161193655    -0.00002161193651
     0.00011565004170    -0.00009381561678    -0.00009381561674
     0.00011482475993    -0.00040305930468    -0.00040305930465
    -0.00012848730138    -0.00000047884159    -0.00000018413736
    -0.00003749091953     0.00009391815858     0.00005218641138
     0.00002252081526     0.00005455445351     0.00002850468237
     0.00002964961837     0.00001759292037     0.00000896416743
     0.00003467961276     0.00000462635123     0.00000233246057
     0.00003744342784     0.00000001125047     0.00000000670378
     0.00003467697746    -0.00000459495865    -0.00000231482367
     0.00002965211893    -0.00001752780247    -0.00000892762518
     0.00002260746028    -0.00005445433611    -0.00002843814514
    -0.00003709356670    -0.00009405782675    -0.00005220210677
    -0.00005160134543    -0.00000007514560    -0.00000002008675
    -0.00003242967981     0.00002162550988     0.00000803412902
    -0.00000445756003     0.00001757011613     0.00000625734446
     0.00001583378449     0.00000807674392     0.00000285653143
     0.00002938648465     0.00000271049608     0.00000095609720
     0.00003463360290     0.00000001145975     0.00000000632400
     0.00002939963834    -0.00000268548630    -0.00000094193774
     0.00001586139631    -0.00000805069585    -0.00000284215146
    -0.00000440215599    -0.00001755049563    -0.00000624289721
    -0.00003234193102    -0.00002168412425    -0.00000804476642
    -0.00003615965445    -0.00000001176225     0.00000000012309
    -0.00002791216193     0.00000454747173     0.00000140645775
    -0.00000904599046     0.00000461414839     0.00000143001949
     0.00001146529377     0.00000270425066     0.00000082153765
     0.00002710438948     0.00000099165005     0.00000031447654
     0.00003301485546     0.00000000591857     0.00000000554753
     0.00002712089142    -0.00000097997781    -0.00000030465777
     0.00001149260165    -0.00000269173392    -0.00000081148728
    -0.00000901240128    -0.00000460710601    -0.00000142035891
    -0.00002788553077    -0.00000455978793    -0.00000140243694
    -0.00003376246026     0.00000000000008     0.00000000317688
    -0.00002687711257     0.00000000000009     0.00000041119198
    -0.00000966157463     0.00000000000007     0.00000061568219
     0.00001060760399     0.00000000000007     0.00000041749560
     0.00002651473973     0.00000000000009     0.00000019785921
     0.00003244385825     0.00000000000006     0.00000000435194
     0.00002652875366     0.00000000000000    -0.00000018598082
     0.00001063074463     0.00000000000002    -0.00000040735385
    -0.00000963197304     0.00000000000004    -0.00000060672835
    -0.00002685670913     0.00000000000004    -0.00000040469757
    -0.00003615965443     0.00000001176228     0.00000000012306
    -0.00002791216188    -0.00000454747161     0.00000140645779
    -0.00000904599047    -0.00000461414833     0.00000143001947
     0.00001146529377    -0.00000270425057     0.00000082153764
     0.00002710438941    -0.00000099164995     0.00000031447647
     0.00003301485536    -0.00000000591853     0.00000000554749
     0.00002712089148     0.00000097997789    -0.00000030465770
     0.00001149260164     0.00000269173399    -0.00000081148729
    -0.00000901240125     0.00000460710610    -0.00000142035896
    -0.00002788553077     0.00000455978798    -0.00000140243693
    -0.00005160134538     0.00000007514555    -0.00000002008680
    -0.00003242967980    -0.00002162550978     0.00000803412898
    -0.00000445756004    -0.00001757011611     0.00000625734446
     0.00001583378450    -0.00000807674393     0.00000285653142
     0.00002938648464    -0.00000271049606     0.00000095609716
     0.00003463360284    -0.00000001145978     0.00000000632395
     0.00002939963834     0.00000268548631    -0.00000094193779
     0.00001586139633     0.00000805069587    -0.00000284215146
    -0.00000440215601     0.00001755049562    -0.00000624289729
    -0.00003234193104     0.00002168412426    -0.00000804476645
    -0.00012848730137     0.00000047884161    -0.00000018413745
    -0.00003749091947    -0.00009391815857     0.00005218641136
     0.00002252081523    -0.00005455445349     0.00002850468231
     0.00002964961840    -0.00001759292036     0.00000896416739
     0.00003467961274    -0.00000462635122     0.00000233246054
     0.00003744342780    -0.00000001125044     0.00000000670374
     0.00003467697752     0.00000459495869    -0.00000231482371
     0.00002965211887     0.00001752780246    -0.00000892762529
     0.00002260746031     0.00005445433614    -0.00002843814514
    -0.00003709356674     0.00009405782674    -0.00005220210680
    -0.00071757156490     0.00000489603177    -0.00000489603185
     0.00011342263062    -0.00040389216201     0.00040389216193
     0.00011575195268    -0.00009416135278     0.00009416135265
     0.00005896590619    -0.00002169772984     0.00002169772980
     0.00004249581623    -0.00000456888310     0.00000456888299
     0.00004105184680    -0.00000000753098     0.00000000753092
     0.00004247362719     0.00000453835337    -0.00000453835345
     0.00005889152594     0.00002161193646    -0.00002161193652
     0.00011565004169     0.00009381561663    -0.00009381561677
     0.00011482475989     0.00040305930458    -0.00040305930464
    -0.00018698049274    -0.00000000000009    -0.00000081295502
    -0.00004028827538    -0.00000000000013     0.00017501746064
     0.00004712045309    -0.00000000000023     0.00008756308041
     0.00003707463692    -0.00000000000017     0.00002368046793
     0.00003684229709    -0.00000000000018     0.00000582429414
     0.00003849862962    -0.00000000000012     0.00000001421563
     0.00003683665328    -0.00000000000015    -0.00000578924723
     0.00003706375583    -0.00000000000018    -0.00002359689607
     0.00004713724185    -0.00000000000013    -0.00008731983340
    -0.00003967341045    -0.00000000000013    -0.00017498109491
    -0.00012848730135    -0.00000018413743    -0.00000047884148
    -0.00003749091952     0.00005218641131     0.00009391815866
     0.00002252081526     0.00002850468232     0.00005455445362
     0.00002964961840     0.00000896416741     0.00001759292052
     0.00003467961277     0.00000233246053     0.00000462635136
     0.00003744342781     0.00000000670372     0.00000001125052
     0.00003467697745    -0.00000231482371    -0.00000459495856
     0.00002965211890    -0.00000892762527    -0.00001752780237
     0.00002260746032    -0.00002843814513    -0.00005445433600
    -0.00003709356668    -0.00005220210682    -0.00009405782664
    -0.00006473632801    -0.00000012916236    -0.00000012916230
    -0.00003530039893     0.00002843513016     0.00002843513026
    -0.00000006378611     0.00002021319917     0.00002021319937
     0.00001901102598     0.00000837265678     0.00000837265690
     0.00003076560650     0.00000255557642     0.00000255557653
     0.00003519717054     0.00000000932300     0.00000000932308
     0.00003077192335    -0.00000253329741    -0.00000253329731
     0.00001904039288    -0.00000834360344    -0.00000834360334
     0.00000000161694    -0.00002018196886    -0.00002018196879
    -0.00003515091746    -0.00002850753944    -0.00002850753933
    -0.00004074958632    -0.00000003108699    -0.00000001706283
    -0.00002969704456     0.00000893287599     0.00000624536412
    -0.00000774190416     0.00000836266152     0.00000582718202
     0.00001295466347     0.00000438308504     0.00000304677994
     0.00002806076604     0.00000159907170     0.00000108517757
     0.00003375923576     0.00000001034755     0.00000000984744
     0.00002807494922    -0.00000157639225    -0.00000106511858
     0.00001298501674    -0.00000436496664    -0.00000302796263
    -0.00000769875033    -0.00000835353579    -0.00000581443279
    -0.00002965170920    -0.00000895883898    -0.00000625487940
    -0.00003427123666    -0.00000000575288     0.00000000240019
    -0.00002709510137     0.00000232127767     0.00000142888753
    -0.00000950289360     0.00000254763240     0.00000155872793
     0.00001082578221     0.00000159307827     0.00000100974237
     0.00002656331744     0.00000063776635     0.00000040756093
     0.00003261047668     0.00000000596539     0.00000000932796
     0.00002657553263    -0.00000062771830    -0.00000039109327
     0.00001084668580    -0.00000158238774    -0.00000099237639
    -0.00000947417435    -0.00000254122423    -0.00000154580508
    -0.00002707275760    -0.00000232595954    -0.00000142150884
    -0.00003305298120     0.00000000000006     0.00000000388403
    -0.00002652458022     0.00000000000003     0.00000061745151
    -0.00000990198741     0.00000000000006     0.00000079360285
     0.00001029172933     0.00000000000005     0.00000060294804
     0.00002625911491     0.00000000000005     0.00000032212669
     0.00003233906947    -0.00000000000004     0.00000000920581
     0.00002627412996    -0.00000000000001    -0.00000030515696
     0.00001031281944     0.00000000000000    -0.00000058748044
    -0.00000987538331     0.00000000000002    -0.00000077868613
    -0.00002650879853     0.00000000000003    -0.00000060493646
    -0.00003427123662     0.00000000575296     0.00000000240014
    -0.00002709510137    -0.00000232127764     0.00000142888746
    -0.00000950289360    -0.00000254763244     0.00000155872789
     0.00001082578219    -0.00000159307824     0.00000100974227
     0.00002656331747    -0.00000063776632     0.00000040756082
     0.00003261047662    -0.00000000596536     0.00000000932787
     0.00002657553259     0.00000062771830    -0.00000039109334
     0.00001084668574     0.00000158238775    -0.00000099237644
    -0.00000947417427     0.00000254122426    -0.00000154580507
    -0.00002707275761     0.00000232595960    -0.00000142150886
    -0.00004074958632     0.00000003108696    -0.00000001706293
    -0.00002969704460    -0.00000893287598     0.00000624536402
    -0.00000774190404    -0.00000836266148     0.00000582718208
     0.00001295466346    -0.00000438308510     0.00000304677987
     0.00002806076604    -0.00000159907168     0.00000108517744
     0.00003375923572    -0.00000001034760     0.00000000984731
     0.00002807494921     0.00000157639218    -0.00000106511865
     0.00001298501675     0.00000436496658    -0.00000302796267
    -0.00000769875034     0.00000835353578    -0.00000581443282
    -0.00002965170918     0.00000895883890    -0.00000625487945
    -0.00006473632790     0.00000012916226    -0.00000012916211
    -0.00003530039889    -0.00002843513009     0.00002843513021
    -0.00000006378635    -0.00002021319897     0.00002021319897
     0.00001901102598    -0.00000837265671     0.00000837265677
     0.00003076560652    -0.00000255557643     0.00000255557643
     0.00003519717050    -0.00000000932302     0.00000000932311
     0.00003077192342     0.00000253329747    -0.00000253329736
     0.00001904039283     0.00000834360361    -0.00000834360355
     0.00000000161700     0.00002018196888    -0.00002018196889
    -0.00003515091751     0.00002850753948    -0.00002850753938
    -0.00012848730135     0.00000018413736    -0.00000047884154
    -0.00003749091949    -0.00005218641143     0.00009391815864
     0.00002252081520    -0.00002850468243     0.00005455445354
     0.00002964961835    -0.00000896416749     0.00001759292041
     0.00003467961278    -0.00000233246056     0.00000462635127
     0.00003744342780    -0.00000000670377     0.00000001125049
     0.00003467697747     0.00000231482366    -0.00000459495859
     0.00002965211887     0.00000892762516    -0.00001752780242
     0.00002260746034     0.00002843814502    -0.00005445433606
    -0.00003709356669     0.00005220210672    -0.00009405782669
    -0.00005867875191    -0.00000000000018    -0.00000010090985
    -0.00003373021934    -0.00000000000018     0.00003045529216
    -0.00000213618815    -0.00000000000014     0.00002365221516
     0.00001759110573    -0.00000000000010     0.00001026039987
     0.00003016535201    -0.00000000000017     0.00000328124785
     0.00003508899662    -0.00000000000016     0.00000000908428
     0.00003017993768    -0.00000000000014    -0.00000325686706
     0.00001761512713    -0.00000000000013    -0.00001022478271
    -0.00000207635808    -0.00000000000011    -0.00002362499283
    -0.00003362267248    -0.00000000000013    -0.00003052144150
    -0.00005160134544    -0.00000002008682    -0.00000007514560
    -0.00003242967979     0.00000803412897     0.00002162550991
    -0.00000445755999     0.00000625734446     0.00001757011621
     0.00001583378451     0.00000285653140     0.00000807674397
     0.00002938648462     0.00000095609714     0.00000271049610
     0.00003463360290     0.00000000632396     0.00000001145980
     0.00002939963835    -0.00000094193777    -0.00000268548627
     0.00001586139632    -0.00000284215147    -0.00000805069579
    -0.00000440215598    -0.00000624289727    -0.00001755049562
    -0.00003234193100    -0.00000804476647    -0.00002168412420
    -0.00004074958630    -0.00000001706295    -0.00000003108695
    -0.00002969704454     0.00000624536402     0.00000893287605
    -0.00000774190418     0.00000582718189     0.00000836266159
     0.00001295466346     0.00000304677982     0.00000438308509
     0.00002806076604     0.00000108517745     0.00000159907178
     0.00003375923577     0.00000000984734     0.00000001034758
     0.00002807494922    -0.00000106511866    -0.00000157639220
     0.00001298501676    -0.00000302796271    -0.00000436496659
    -0.00000769875031    -0.00000581443285    -0.00000835353572
    -0.00002965170919    -0.00000625487950    -0.00000895883892
    -0.00003495478721    -0.00000000502825    -0.00000000502820
    -0.00002739702721     0.00000284865806     0.00000284865810
    -0.00000937066419     0.00000304342626     0.00000304342632
     0.00001110523631     0.00000182099316     0.00000182099320
     0.00002684019449     0.00000077252460     0.00000077252467
     0.00003268763624     0.00000000882661     0.00000000882665
     0.00002685576797    -0.00000075486172    -0.00000075486167
     0.00001113353688    -0.00000180505660    -0.00000180505654
    -0.00000933647445    -0.00000303131422    -0.00000303131418
    -0.00002737468502    -0.00000285004359    -0.00000285004354
    -0.00003292006319     0.00000000062795     0.00000000442539
    -0.00002641521883     0.00000095014899     0.00000082128408
    -0.00000975469598     0.00000107805786     0.00000100833544
     0.00001027813934     0.00000076808008     0.00000071217016
     0.00002637169242     0.00000030865024     0.00000033990805
     0.00003223127065     0.00000000611446     0.00000000884664
     0.00002638844549    -0.00000029967566    -0.00000032397808
     0.00001030270581    -0.00000075933146    -0.00000069806152
    -0.00000973207090    -0.00000107224378    -0.00000099381462
    -0.00002639798697    -0.00000094790957    -0.00000081175889
    -0.00003254383881     0.00000000000001     0.00000000567693
    -0.00002621270476     0.00000000000005     0.00000041925425
    -0.00000982392046     0.00000000000004     0.00000060291045
     0.00001005929782    -0.00000000000001     0.00000041342672
     0.00002604807511    -0.00000000000001     0.00000009759941
     0.00003209235361     0.00000000000001     0.00000000854330
     0.00002606165468    -0.00000000000005    -0.00000007903971
     0.00001008018594     0.00000000000002    -0.00000039753933
    -0.00000979861065     0.00000000000001    -0.00000058754115
    -0.00002619614816     0.00000000000005    -0.00000040562761
    -0.00003292006316    -0.00000000062791     0.00000000442532
    -0.00002641521878    -0.00000095014899     0.00000082128406
    -0.00000975469601    -0.00000107805787     0.00000100833535
     0.00001027813925    -0.00000076808008     0.00000071217001
     0.00002637169242    -0.00000030865023     0.00000033990794
     0.00003223127060    -0.00000000611449     0.00000000884658
     0.00002638844554     0.00000029967571    -0.00000032397806
     0.00001030270580     0.00000075933151    -0.00000069806151
    -0.00000973207082     0.00000107224381    -0.00000099381474
    -0.00002639798696     0.00000094790962    -0.00000081175897
    -0.00003495478723     0.00000000502814    -0.00000000502825
    -0.00002739702717    -0.00000284865808     0.00000284865807
    -0.00000937066417    -0.00000304342631     0.00000304342625
     0.00001110523626    -0.00000182099318     0.00000182099311
     0.00002684019446    -0.00000077252463     0.00000077252454
     0.00003268763627    -0.00000000882665     0.00000000882659
     0.00002685576806     0.00000075486160    -0.00000075486165
     0.00001113353688     0.00000180505655    -0.00000180505654
    -0.00000933647440     0.00000303131414    -0.00000303131424
    -0.00002737468502     0.00000285004352    -0.00000285004358
    -0.00004074958628     0.00000001706298    -0.00000003108700
    -0.00002969704459    -0.00000624536394     0.00000893287596
    -0.00000774190420    -0.00000582718182     0.00000836266154
     0.00001295466347    -0.00000304677983     0.00000438308503
     0.00002806076606    -0.00000108517739     0.00000159907173
     0.00003375923574    -0.00000000984726     0.00000001034752
     0.00002807494926     0.00000106511875    -0.00000157639227
     0.00001298501671     0.00000302796277    -0.00000436496662
    -0.00000769875037     0.00000581443285    -0.00000835353579
    -0.00002965170920     0.00000625487950    -0.00000895883897
    -0.00005160134540     0.00000002008674    -0.00000007514560
    -0.00003242967979    -0.00000803412899     0.00002162550984
    -0.00000445756008    -0.00000625734450     0.00001757011612
     0.00001583378449    -0.00000285653141     0.00000807674392
     0.00002938648467    -0.00000095609718     0.00000271049609
     0.00003463360290    -0.00000000632393     0.00000001145977
     0.00002939963836     0.00000094193779    -0.00000268548632
     0.00001586139627     0.00000284215151    -0.00000805069584
    -0.00000440215598     0.00000624289717    -0.00001755049567
    -0.00003234193102     0.00000804476646    -0.00002168412424
    -0.00003735789504    -0.00000000000015    -0.00000001592706
    -0.00002822532257    -0.00000000000014     0.00000580396738
    -0.00000868105840    -0.00000000000016     0.00000581067251
     0.00001180491698    -0.00000000000017     0.00000327425204
     0.00002736598318    -0.00000000000020     0.00000120387669
     0.00003324772295    -0.00000000000020     0.00000000478836
     0.00002737953589    -0.00000000000014    -0.00000119091974
     0.00001183023283    -0.00000000000015    -0.00000326385928
    -0.00000864901801    -0.00000000000016    -0.00000580289220
    -0.00002819347567    -0.00000000000016    -0.00000581922786
    -0.00003615965443     0.00000000012304    -0.00000001176219
    -0.00002791216190     0.00000140645775     0.00000454747180
    -0.00000904599044     0.00000143001946     0.00000461414844
     0.00001146529378     0.00000082153760     0.00000270425069
     0.00002710438947     0.00000031447649     0.00000099165012
     0.00003301485544     0.00000000554750     0.00000000591862
     0.00002712089144    -0.00000030465779    -0.00000097997775
     0.00001149260166    -0.00000081148729    -0.00000269173383
    -0.00000901240129    -0.00000142035897    -0.00000460710594
    -0.00002788553076    -0.00000140243698    -0.00000455978786
    -0.00003427123665     0.00000000240008    -0.00000000575279
    -0.00002709510136     0.00000142888743     0.00000232127775
    -0.00000950289354     0.00000155872790     0.00000254763252
     0.00001082578221     0.00000100974227     0.00000159307834
     0.00002656331745     0.00000040756080     0.00000063776642
     0.00003261047667     0.00000000932783     0.00000000596544
     0.00002657553266    -0.00000039109336    -0.00000062771823
     0.00001084668582    -0.00000099237647    -0.00000158238762
    -0.00000947417438    -0.00000154580514    -0.00000254122414
    -0.00002707275760    -0.00000142150890    -0.00000232595944
    -0.00003292006321     0.00000000442534     0.00000000062807
    -0.00002641521880     0.00000082128407     0.00000095014911
    -0.00000975469598     0.00000100833537     0.00000107805796
     0.00001027813933     0.00000071217009     0.00000076808015
     0.00002637169243     0.00000033990802     0.00000030865031
     0.00003223127064     0.00000000884661     0.00000000611454
     0.00002638844549    -0.00000032397810    -0.00000029967556
     0.00001030270589    -0.00000069806153    -0.00000075933127
    -0.00000973207094    -0.00000099381464    -0.00000107224362
    -0.00002639798696    -0.00000081175893    -0.00000094790944
    -0.00003230836263     0.00000000345977     0.00000000345989
    -0.00002601901811     0.00000031354080     0.00000031354094
    -0.00000991585785     0.00000040404388     0.00000040404399
     0.00001013577308     0.00000033601631     0.00000033601640
     0.00002584996267     0.00000021141777     0.00000021141789
     0.00003199145865     0.00000000507410     0.00000000507416
     0.00002586180424    -0.00000020211015    -0.00000020211002
     0.00001016057628    -0.00000032786609    -0.00000032786588
    -0.00000989462272    -0.00000039463428    -0.00000039463409
    -0.00002600251009    -0.00000030561472    -0.00000030561459
    -0.00003212661944    -0.00000000000001     0.00000000364133
    -0.00002607733419     0.00000000000002     0.00000019645028
    -0.00000988272644    -0.00000000000003     0.00000031686983
     0.00000992446665    -0.00000000000007     0.00000009364791
     0.00002590827921     0.00000000000003     0.00000024303089
     0.00003196644562     0.00000000000008     0.00000000591878
     0.00002592063092    -0.00000000000007    -0.00000023226736
     0.00000994540664    -0.00000000000006    -0.00000008296233
    -0.00000986311417    -0.00000000000002    -0.00000031039649
    -0.00002606962294    -0.00000000000002    -0.00000018740224
    -0.00003230836257    -0.00000000345977     0.00000000345989
    -0.00002601901815    -0.00000031354078     0.00000031354082
    -0.00000991585792    -0.00000040404386     0.00000040404393
     0.00001013577302    -0.00000033601631     0.00000033601634
     0.00002584996270    -0.00000021141781     0.00000021141788
     0.00003199145855    -0.00000000507416     0.00000000507414
     0.00002586180427     0.00000020211018    -0.00000020211018