nqpoint: 151    
natom:   5      
reciprocal_lattice:
- [   0.25173007,   0.00000000,   0.00000000 ] # a*
- [   0.00000000,   0.25173007,   0.00000000 ] # b*
- [   0.00000000,   0.00000000,   0.25173007 ] # c*
phonon:
- q-position: [    0.0000000,    0.0000000,    0.0000000 ]
  band:
  - # 1
    frequency:   -4.5086284081
  - # 2
    frequency:   -4.5086284081
  - # 3
    frequency:   -4.5086284081
  - # 4
    frequency:    0.0069813095
  - # 5
    frequency:    0.0069813095
  - # 6
    frequency:    0.0069813095
  - # 7
    frequency:    5.0800526381
  - # 8
    frequency:    5.0800526381
  - # 9
    frequency:    5.0800526381
  - # 10
    frequency:    9.2530999221
  - # 11
    frequency:    9.2530999221
  - # 12
    frequency:    9.2530999221
  - # 13
    frequency:   13.8461114050
  - # 14
    frequency:   13.8461114050
  - # 15
    frequency:   13.8461114050

- q-position: [    0.0000000,    0.0166667,    0.0000000 ]
  band:
  - # 1
    frequency:   -4.5053551891
  - # 2
    frequency:   -4.5053551891
  - # 3
    frequency:    0.1929476878
  - # 4
    frequency:    0.1929476878
  - # 5
    frequency:    0.2471894792
  - # 6
    frequency:    4.9200362346
  - # 7
    frequency:    5.0816253020
  - # 8
    frequency:    5.0816253020
  - # 9
    frequency:    9.2546204406
  - # 10
    frequency:    9.2546204406
  - # 11
    frequency:    9.2546657338
  - # 12
    frequency:   12.5439693380
  - # 13
    frequency:   13.8448198186
  - # 14
    frequency:   13.8448198186
  - # 15
    frequency:   17.6545704312

- q-position: [    0.0000000,    0.0333333,    0.0000000 ]
  band:
  - # 1
    frequency:   -4.4956140995
  - # 2
    frequency:   -4.4956140995
  - # 3
    frequency:    0.3852640378
  - # 4
    frequency:    0.3852640378
  - # 5
    frequency:    0.5043288014
  - # 6
    frequency:    4.9162202959
  - # 7
    frequency:    5.0863668943
  - # 8
    frequency:    5.0863668943
  - # 9
    frequency:    9.2591806891
  - # 10
    frequency:    9.2591806891
  - # 11
    frequency:    9.2593446060
  - # 12
    frequency:   12.2347115919
  - # 13
    frequency:   13.8409494344
  - # 14
    frequency:   13.8409494344
  - # 15
    frequency:   16.8023826693

- q-position: [    0.0000000,    0.0500000,    0.0000000 ]
  band:
  - # 1
    frequency:   -4.4796391093
  - # 2
    frequency:   -4.4796391093
  - # 3
    frequency:    0.5766952253
  - # 4
    frequency:    0.5766952253
  - # 5
    frequency:    0.7776435198
  - # 6
    frequency:    4.8681284720
  - # 7
    frequency:    5.0943467621
  - # 8
    frequency:    5.0943467621
  - # 9
    frequency:    9.2667762087
  - # 10
    frequency:    9.2667762087
  - # 11
    frequency:    9.2670802141
  - # 12
    frequency:   11.5787420777
  - # 13
    frequency:   13.8345133650
  - # 14
    frequency:   13.8345133650
  - # 15
    frequency:   15.6610986514

- q-position: [    0.0000000,    0.0666667,    0.0000000 ]
  band:
  - # 1
    frequency:   -4.4578139087
  - # 2
    frequency:   -4.4578139087
  - # 3
    frequency:    0.7666434468
  - # 4
    frequency:    0.7666434468
  - # 5
    frequency:    1.0657683610
  - # 6
    frequency:    4.6705178302
  - # 7
    frequency:    5.1056756625
  - # 8
    frequency:    5.1056756625
  - # 9
    frequency:    9.2773979028
  - # 10
    frequency:    9.2773979028
  - # 11
    frequency:    9.2777768679
  - # 12
    frequency:   10.3773130332
  - # 13
    frequency:   13.8255334827
  - # 14
    frequency:   13.8255334827
  - # 15
    frequency:   14.6734525620

- q-position: [    0.0000000,    0.0833333,    0.0000000 ]
  band:
  - # 1
    frequency:   -4.4306610005
  - # 2
    frequency:   -4.4306610005
  - # 3
    frequency:    0.9544287516
  - # 4
    frequency:    0.9544287516
  - # 5
    frequency:    1.3525698924
  - # 6
    frequency:    4.0349865028
  - # 7
    frequency:    5.1204986081
  - # 8
    frequency:    5.1204986081
  - # 9
    frequency:    8.8435811774
  - # 10
    frequency:    9.2910299418
  - # 11
    frequency:    9.2910299418
  - # 12
    frequency:    9.2912977790
  - # 13
    frequency:   13.8140406380
  - # 14
    frequency:   13.8140406380
  - # 15
    frequency:   14.1062734973

- q-position: [    0.0000000,    0.1000000,    0.0000000 ]
  band:
  - # 1
    frequency:   -4.3988240332
  - # 2
    frequency:   -4.3988240332
  - # 3
    frequency:    1.1392562512
  - # 4
    frequency:    1.1392562512
  - # 5
    frequency:    1.5086408034
  - # 6
    frequency:    2.6140009272
  - # 7
    frequency:    5.1389849396
  - # 8
    frequency:    5.1389849396
  - # 9
    frequency:    7.7835197144
  - # 10
    frequency:    9.3074643016
  - # 11
    frequency:    9.3076474838
  - # 12
    frequency:    9.3076474838
  - # 13
    frequency:   13.8000752802
  - # 14
    frequency:   13.8000752802
  - # 15
    frequency:   13.8711973572

- q-position: [    0.0000000,    0.1166667,    0.0000000 ]
  band:
  - # 1
    frequency:   -4.3630422991
  - # 2
    frequency:   -4.3630422991
  - # 3
    frequency:    0.7081491940
  - # 4
    frequency:    1.3202178990
  - # 5
    frequency:    1.3202178990
  - # 6
    frequency:    2.2383904661
  - # 7
    frequency:    5.1613156078
  - # 8
    frequency:    5.1613156078
  - # 9
    frequency:    7.4781304460
  - # 10
    frequency:    9.3260571933
  - # 11
    frequency:    9.3272145604
  - # 12
    frequency:    9.3272145604
  - # 13
    frequency:   13.7836886641
  - # 14
    frequency:   13.7836886641
  - # 15
    frequency:   13.8436120522

- q-position: [    0.0000000,    0.1333333,    0.0000000 ]
  band:
  - # 1
    frequency:   -4.3241175034
  - # 2
    frequency:   -4.3241175034
  - # 3
    frequency:    1.4963129701
  - # 4
    frequency:    1.4963129701
  - # 5
    frequency:    2.0014989050
  - # 6
    frequency:    3.3748347036
  - # 7
    frequency:    5.1876675616
  - # 8
    frequency:    5.1876675616
  - # 9
    frequency:    7.7471432418
  - # 10
    frequency:    9.3468205429
  - # 11
    frequency:    9.3496822597
  - # 12
    frequency:    9.3496822597
  - # 13
    frequency:   13.7649447372
  - # 14
    frequency:   13.7649447372
  - # 15
    frequency:   13.9539469765

- q-position: [    0.0000000,    0.1500000,    0.0000000 ]
  band:
  - # 1
    frequency:   -4.2828745766
  - # 2
    frequency:   -4.2828745766
  - # 3
    frequency:    1.6664835637
  - # 4
    frequency:    1.6664835637
  - # 5
    frequency:    2.3717733619
  - # 6
    frequency:    5.0642965112
  - # 7
    frequency:    5.2181951119
  - # 8
    frequency:    5.2181951119
  - # 9
    frequency:    8.8464039460
  - # 10
    frequency:    9.3694684032
  - # 11
    frequency:    9.3749870479
  - # 12
    frequency:    9.3749870479
  - # 13
    frequency:   13.7439226750
  - # 14
    frequency:   13.7439226750
  - # 15
    frequency:   14.1644179343

- q-position: [    0.0000000,    0.1666667,    0.0000000 ]
  band:
  - # 1
    frequency:   -4.2401200350
  - # 2
    frequency:   -4.2401200350
  - # 3
    frequency:    1.8296613281
  - # 4
    frequency:    1.8296613281
  - # 5
    frequency:    2.5998526331
  - # 6
    frequency:    5.2530082758
  - # 7
    frequency:    5.2530082758
  - # 8
    frequency:    5.8082909547
  - # 9
    frequency:    9.3936935013
  - # 10
    frequency:    9.4030487926
  - # 11
    frequency:    9.4030487926
  - # 12
    frequency:   10.7680582393
  - # 13
    frequency:   13.7207199011
  - # 14
    frequency:   13.7207199011
  - # 15
    frequency:   14.4796108590

- q-position: [    0.0000000,    0.1833333,    0.0000000 ]
  band:
  - # 1
    frequency:   -4.1966026805
  - # 2
    frequency:   -4.1966026805
  - # 3
    frequency:    1.9848207192
  - # 4
    frequency:    1.9848207192
  - # 5
    frequency:    2.7920680532
  - # 6
    frequency:    5.2921484827
  - # 7
    frequency:    5.2921484827
  - # 8
    frequency:    6.0791048868
  - # 9
    frequency:    9.4191768712
  - # 10
    frequency:    9.4337678976
  - # 11
    frequency:    9.4337678976
  - # 12
    frequency:   12.5683781268
  - # 13
    frequency:   13.6954553440
  - # 14
    frequency:   13.6954553440
  - # 15
    frequency:   15.0307930567

- q-position: [    0.0000000,    0.2000000,    0.0000000 ]
  band:
  - # 1
    frequency:   -4.1529818221
  - # 2
    frequency:   -4.1529818221
  - # 3
    frequency:    2.1310334882
  - # 4
    frequency:    2.1310334882
  - # 5
    frequency:    2.9674281279
  - # 6
    frequency:    5.3355626995
  - # 7
    frequency:    5.3355626995
  - # 8
    frequency:    6.2099986350
  - # 9
    frequency:    9.4455970063
  - # 10
    frequency:    9.4670209750
  - # 11
    frequency:    9.4670209750
  - # 12
    frequency:   13.5586002453
  - # 13
    frequency:   13.6682726573
  - # 14
    frequency:   13.6682726573
  - # 15
    frequency:   16.0350401973

- q-position: [    0.0000000,    0.2166667,    0.0000000 ]
  band:
  - # 1
    frequency:   -4.1098074608
  - # 2
    frequency:   -4.1098074608
  - # 3
    frequency:    2.2675189334
  - # 4
    frequency:    2.2675189334
  - # 5
    frequency:    3.1343171598
  - # 6
    frequency:    5.3830779367
  - # 7
    frequency:    5.3830779367
  - # 8
    frequency:    6.3103660204
  - # 9
    frequency:    9.4726372423
  - # 10
    frequency:    9.5026546996
  - # 11
    frequency:    9.5026546996
  - # 12
    frequency:   13.6393431835
  - # 13
    frequency:   13.6393431835
  - # 14
    frequency:   13.9351868850
  - # 15
    frequency:   17.1388505667

- q-position: [    0.0000000,    0.2333333,    0.0000000 ]
  band:
  - # 1
    frequency:   -4.0675150610
  - # 2
    frequency:   -4.0675150610
  - # 3
    frequency:    2.3936848307
  - # 4
    frequency:    2.3936848307
  - # 5
    frequency:    3.2965617728
  - # 6
    frequency:    5.4343790310
  - # 7
    frequency:    5.4343790310
  - # 8
    frequency:    6.4264462787
  - # 9
    frequency:    9.4999905186
  - # 10
    frequency:    9.5404778628
  - # 11
    frequency:    9.5404778628
  - # 12
    frequency:   13.6088685474
  - # 13
    frequency:   13.6088685474
  - # 14
    frequency:   14.0959228599
  - # 15
    frequency:   17.9202169976

- q-position: [    0.0000000,    0.2500000,    0.0000000 ]
  band:
  - # 1
    frequency:   -4.0264349916
  - # 2
    frequency:   -4.0264349916
  - # 3
    frequency:    2.5091549073
  - # 4
    frequency:    2.5091549073
  - # 5
    frequency:    3.4546556427
  - # 6
    frequency:    5.4889932475
  - # 7
    frequency:    5.4889932475
  - # 8
    frequency:    6.5787819013
  - # 9
    frequency:    9.5273613160
  - # 10
    frequency:    9.5802520901
  - # 11
    frequency:    9.5802520901
  - # 12
    frequency:   13.5770828882
  - # 13
    frequency:   13.5770828882
  - # 14
    frequency:   14.1870452075
  - # 15
    frequency:   18.2877131572

- q-position: [    0.0000000,    0.2666667,    0.0000000 ]
  band:
  - # 1
    frequency:   -3.9868140276
  - # 2
    frequency:   -3.9868140276
  - # 3
    frequency:    2.6137802353
  - # 4
    frequency:    2.6137802353
  - # 5
    frequency:    3.6068456035
  - # 6
    frequency:    5.5462852364
  - # 7
    frequency:    5.5462852364
  - # 8
    frequency:    6.7682963931
  - # 9
    frequency:    9.5544652652
  - # 10
    frequency:    9.6216821032
  - # 11
    frequency:    9.6216821032
  - # 12
    frequency:   13.5442548284
  - # 13
    frequency:   13.5442548284
  - # 14
    frequency:   14.2631588280
  - # 15
    frequency:   18.2967694592

- q-position: [    0.0000000,    0.2833333,    0.0000000 ]
  band:
  - # 1
    frequency:   -3.9488440748
  - # 2
    frequency:   -3.9488440748
  - # 3
    frequency:    2.7076338631
  - # 4
    frequency:    2.7076338631
  - # 5
    frequency:    3.7505441715
  - # 6
    frequency:    5.6054650015
  - # 7
    frequency:    5.6054650015
  - # 8
    frequency:    6.9794959290
  - # 9
    frequency:    9.5810274641
  - # 10
    frequency:    9.6644067120
  - # 11
    frequency:    9.6644067120
  - # 12
    frequency:   13.5106892910
  - # 13
    frequency:   13.5106892910
  - # 14
    frequency:   14.3428492164
  - # 15
    frequency:   18.0738158977

- q-position: [    0.0000000,    0.3000000,    0.0000000 ]
  band:
  - # 1
    frequency:   -3.9126920514
  - # 2
    frequency:   -3.9126920514
  - # 3
    frequency:    2.7909900951
  - # 4
    frequency:    2.7909900951
  - # 5
    frequency:    3.8835762317
  - # 6
    frequency:    5.6656098239
  - # 7
    frequency:    5.6656098239
  - # 8
    frequency:    7.1885005840
  - # 9
    frequency:    9.6067808095
  - # 10
    frequency:    9.7079918530
  - # 11
    frequency:    9.7079918530
  - # 12
    frequency:   13.4767291800
  - # 13
    frequency:   13.4767291800
  - # 14
    frequency:   14.4201543077
  - # 15
    frequency:   17.7817081266

- q-position: [    0.0000000,    0.3166667,    0.0000000 ]
  band:
  - # 1
    frequency:   -3.8785249286
  - # 2
    frequency:   -3.8785249286
  - # 3
    frequency:    2.8642916617
  - # 4
    frequency:    2.8642916617
  - # 5
    frequency:    4.0047563294
  - # 6
    frequency:    5.7256989003
  - # 7
    frequency:    5.7256989003
  - # 8
    frequency:    7.3742067656
  - # 9
    frequency:    9.6314655535
  - # 10
    frequency:    9.7519269437
  - # 11
    frequency:    9.7519269437
  - # 12
    frequency:   13.4427567455
  - # 13
    frequency:   13.4427567455
  - # 14
    frequency:   14.4838121785
  - # 15
    frequency:   17.5729102626

- q-position: [    0.0000000,    0.3333333,    0.0000000 ]
  band:
  - # 1
    frequency:   -3.8465252965
  - # 2
    frequency:   -3.8465252965
  - # 3
    frequency:    2.9281091882
  - # 4
    frequency:    2.9281091882
  - # 5
    frequency:    4.1138215275
  - # 6
    frequency:    5.7846573431
  - # 7
    frequency:    5.7846573431
  - # 8
    frequency:    7.5259763701
  - # 9
    frequency:    9.6548308740
  - # 10
    frequency:    9.7956256281
  - # 11
    frequency:    9.7956256281
  - # 12
    frequency:   13.4091941795
  - # 13
    frequency:   13.4091941795
  - # 14
    frequency:   14.5492771852
  - # 15
    frequency:   17.5277398740

- q-position: [    0.0000000,    0.3500000,    0.0000000 ]
  band:
  - # 1
    frequency:   -3.8168951879
  - # 2
    frequency:   -3.8168951879
  - # 3
    frequency:    2.9830976578
  - # 4
    frequency:    2.9830976578
  - # 5
    frequency:    4.2110982975
  - # 6
    frequency:    5.8414046721
  - # 7
    frequency:    5.8414046721
  - # 8
    frequency:    7.6434972220
  - # 9
    frequency:    9.6766386155
  - # 10
    frequency:    9.8384316966
  - # 11
    frequency:    9.8384316966
  - # 12
    frequency:   13.3765027072
  - # 13
    frequency:   13.3765027072
  - # 14
    frequency:   14.6538792695
  - # 15
    frequency:   17.6362515575

- q-position: [    0.0000000,    0.3666667,    0.0000000 ]
  band:
  - # 1
    frequency:   -3.7898487191
  - # 2
    frequency:   -3.7898487191
  - # 3
    frequency:    3.0299540167
  - # 4
    frequency:    3.0299540167
  - # 5
    frequency:    4.2972095101
  - # 6
    frequency:    5.8949023205
  - # 7
    frequency:    5.8949023205
  - # 8
    frequency:    7.7316155874
  - # 9
    frequency:    9.6966686725
  - # 10
    frequency:    9.8796306196
  - # 11
    frequency:    9.8796306196
  - # 12
    frequency:   13.3451792166
  - # 13
    frequency:   13.3451792166
  - # 14
    frequency:   14.8038523786
  - # 15
    frequency:   17.8488188384

- q-position: [    0.0000000,    0.3833333,    0.0000000 ]
  band:
  - # 1
    frequency:   -3.7655967309
  - # 2
    frequency:   -3.7655967309
  - # 3
    frequency:    3.0693789768
  - # 4
    frequency:    3.0693789768
  - # 5
    frequency:    4.3728611623
  - # 6
    frequency:    5.9441950269
  - # 7
    frequency:    5.9441950269
  - # 8
    frequency:    7.7965957232
  - # 9
    frequency:    9.7147249484
  - # 10
    frequency:    9.9184667699
  - # 11
    frequency:    9.9184667699
  - # 12
    frequency:   13.3157493935
  - # 13
    frequency:   13.3157493935
  - # 14
    frequency:   14.9561678100
  - # 15
    frequency:   18.1186028995

- q-position: [    0.0000000,    0.4000000,    0.0000000 ]
  band:
  - # 1
    frequency:   -3.7443283998
  - # 2
    frequency:   -3.7443283998
  - # 3
    frequency:    3.1020448067
  - # 4
    frequency:    3.1020448067
  - # 5
    frequency:    4.4386505066
  - # 6
    frequency:    5.9884421413
  - # 7
    frequency:    5.9884421413
  - # 8
    frequency:    7.8457274682
  - # 9
    frequency:    9.7306405611
  - # 10
    frequency:    9.9541660254
  - # 11
    frequency:    9.9541660254
  - # 12
    frequency:   13.2887564674
  - # 13
    frequency:   13.2887564674
  - # 14
    frequency:   15.0614612862
  - # 15
    frequency:   18.3983543737

- q-position: [    0.0000000,    0.4166667,    0.0000000 ]
  band:
  - # 1
    frequency:   -3.7261952691
  - # 2
    frequency:   -3.7261952691
  - # 3
    frequency:    3.1285697597
  - # 4
    frequency:    3.1285697597
  - # 5
    frequency:    4.4949296470
  - # 6
    frequency:    6.0269365678
  - # 7
    frequency:    6.0269365678
  - # 8
    frequency:    7.8872961081
  - # 9
    frequency:    9.7442810616
  - # 10
    frequency:    9.9859630303
  - # 11
    frequency:    9.9859630303
  - # 12
    frequency:   13.2647450759
  - # 13
    frequency:   13.2647450759
  - # 14
    frequency:   15.1091212945
  - # 15
    frequency:   18.6303227512

- q-position: [    0.0000000,    0.4333333,    0.0000000 ]
  band:
  - # 1
    frequency:   -3.7113021830
  - # 2
    frequency:   -3.7113021830
  - # 3
    frequency:    3.1494989260
  - # 4
    frequency:    3.1494989260
  - # 5
    frequency:    4.5417661208
  - # 6
    frequency:    6.0591110155
  - # 7
    frequency:    6.0591110155
  - # 8
    frequency:    7.9286936886
  - # 9
    frequency:    9.7555448600
  - # 10
    frequency:   10.0131319266
  - # 11
    frequency:   10.0131319266
  - # 12
    frequency:   13.2442404139
  - # 13
    frequency:   13.2442404139
  - # 14
    frequency:   15.1292794988
  - # 15
    frequency:   18.7610973516

- q-position: [    0.0000000,    0.4500000,    0.0000000 ]
  band:
  - # 1
    frequency:   -3.6997074459
  - # 2
    frequency:   -3.6997074459
  - # 3
    frequency:    3.1652907482
  - # 4
    frequency:    3.1652907482
  - # 5
    frequency:    4.5789660654
  - # 6
    frequency:    6.0845331332
  - # 7
    frequency:    6.0845331332
  - # 8
    frequency:    7.9730212377
  - # 9
    frequency:    9.7643607090
  - # 10
    frequency:   10.0350188618
  - # 11
    frequency:   10.0350188618
  - # 12
    frequency:   13.2277236952
  - # 13
    frequency:   13.2277236952
  - # 14
    frequency:   15.1634186013
  - # 15
    frequency:   18.7681954626

- q-position: [    0.0000000,    0.4666667,    0.0000000 ]
  band:
  - # 1
    frequency:   -3.6914317566
  - # 2
    frequency:   -3.6914317566
  - # 3
    frequency:    3.1763081489
  - # 4
    frequency:    3.1763081489
  - # 5
    frequency:    4.6061235501
  - # 6
    frequency:    6.1028926852
  - # 7
    frequency:    6.1028926852
  - # 8
    frequency:    8.0164502902
  - # 9
    frequency:    9.7706828048
  - # 10
    frequency:   10.0510740724
  - # 11
    frequency:   10.0510740724
  - # 12
    frequency:   13.2156058778
  - # 13
    frequency:   13.2156058778
  - # 14
    frequency:   15.2314316068
  - # 15
    frequency:   18.6766583895

- q-position: [    0.0000000,    0.4833333,    0.0000000 ]
  band:
  - # 1
    frequency:   -3.6864728927
  - # 2
    frequency:   -3.6864728927
  - # 3
    frequency:    3.1828131408
  - # 4
    frequency:    3.1828131408
  - # 5
    frequency:    4.6227215978
  - # 6
    frequency:    6.1139849367
  - # 7
    frequency:    6.1139849367
  - # 8
    frequency:    8.0493505192
  - # 9
    frequency:    9.7744846617
  - # 10
    frequency:   10.0608809546
  - # 11
    frequency:   10.0608809546
  - # 12
    frequency:   13.2082023810
  - # 13
    frequency:   13.2082023810
  - # 14
    frequency:   15.3109678990
  - # 15
    frequency:   18.5584952239

- q-position: [    0.0000000,    0.5000000,    0.0000000 ]
  band:
  - # 1
    frequency:   -3.6848214728
  - # 2
    frequency:   -3.6848214728
  - # 3
    frequency:    3.1849638562
  - # 4
    frequency:    3.1849638562
  - # 5
    frequency:    4.6283136238
  - # 6
    frequency:    6.1176946961
  - # 7
    frequency:    6.1176946961
  - # 8
    frequency:    8.0617184939
  - # 9
    frequency:    9.7757532275
  - # 10
    frequency:   10.0641794005
  - # 11
    frequency:   10.0641794005
  - # 12
    frequency:   13.2057119183
  - # 13
    frequency:   13.2057119183
  - # 14
    frequency:   15.3479185733
  - # 15
    frequency:   18.5042901416

- q-position: [    0.0166667,    0.5000000,    0.0000000 ]
  band:
  - # 1
    frequency:   -3.6821676685
  - # 2
    frequency:   -3.6116879898
  - # 3
    frequency:    3.1846383927
  - # 4
    frequency:    3.1850026515
  - # 5
    frequency:    4.6329623060
  - # 6
    frequency:    6.1267237850
  - # 7
    frequency:    6.1268189279
  - # 8
    frequency:    8.0562279554
  - # 9
    frequency:    9.7210874972
  - # 10
    frequency:   10.0646401689
  - # 11
    frequency:   10.1197460119
  - # 12
    frequency:   13.1996112510
  - # 13
    frequency:   13.2031366554
  - # 14
    frequency:   15.3442078525
  - # 15
    frequency:   18.5189816430

- q-position: [    0.0333333,    0.5000000,    0.0000000 ]
  band:
  - # 1
    frequency:   -3.6742850451
  - # 2
    frequency:   -3.3873844749
  - # 3
    frequency:    3.1836703308
  - # 4
    frequency:    3.1851198642
  - # 5
    frequency:    4.6484159392
  - # 6
    frequency:    6.1535154367
  - # 7
    frequency:    6.1540989240
  - # 8
    frequency:    8.0394789139
  - # 9
    frequency:    9.6124218893
  - # 10
    frequency:   10.0660191743
  - # 11
    frequency:   10.2314427306
  - # 12
    frequency:   13.1815645223
  - # 13
    frequency:   13.1954080837
  - # 14
    frequency:   15.3331145846
  - # 15
    frequency:   18.5626394238

- q-position: [    0.0500000,    0.5000000,    0.0000000 ]
  band:
  - # 1
    frequency:   -3.6614036247
  - # 2
    frequency:   -2.9939992266
  - # 3
    frequency:    3.1820846316
  - # 4
    frequency:    3.1853175937
  - # 5
    frequency:    4.6795587454
  - # 6
    frequency:    6.1972257154
  - # 7
    frequency:    6.1992567242
  - # 8
    frequency:    8.0106655324
  - # 9
    frequency:    9.4928288035
  - # 10
    frequency:   10.0683060149
  - # 11
    frequency:   10.3571550073
  - # 12
    frequency:   13.1523083684
  - # 13
    frequency:   13.1825180447
  - # 14
    frequency:   15.3147543568
  - # 15
    frequency:   18.6340453812

- q-position: [    0.0666667,    0.5000000,    0.0000000 ]
  band:
  - # 1
    frequency:   -3.6438865325
  - # 2
    frequency:   -2.3843210458
  - # 3
    frequency:    3.1799228302
  - # 4
    frequency:    3.1855981745
  - # 5
    frequency:    4.7358596156
  - # 6
    frequency:    6.2565739354
  - # 7
    frequency:    6.2618301896
  - # 8
    frequency:    7.9685501417
  - # 9
    frequency:    9.3745169333
  - # 10
    frequency:   10.0714818365
  - # 11
    frequency:   10.4861616163
  - # 12
    frequency:   13.1129815277
  - # 13
    frequency:   13.1644535595
  - # 14
    frequency:   15.2893161691
  - # 15
    frequency:   18.7312687040

- q-position: [    0.0833333,    0.5000000,    0.0000000 ]
  band:
  - # 1
    frequency:   -3.6222026589
  - # 2
    frequency:   -1.3811150335
  - # 3
    frequency:    3.1772429750
  - # 4
    frequency:    3.1859627675
  - # 5
    frequency:    4.8335564509
  - # 6
    frequency:    6.3299834118
  - # 7
    frequency:    6.3411767937
  - # 8
    frequency:    7.9116711446
  - # 9
    frequency:    9.2626498410
  - # 10
    frequency:   10.0755175501
  - # 11
    frequency:   10.6151033226
  - # 12
    frequency:   13.0650166167
  - # 13
    frequency:   13.1411976957
  - # 14
    frequency:   15.2570570100
  - # 15
    frequency:   18.8517921293

- q-position: [    0.1000000,    0.5000000,    0.0000000 ]
  band:
  - # 1
    frequency:   -3.5968939118
  - # 2
    frequency:    1.4039522785
  - # 3
    frequency:    3.1741196002
  - # 4
    frequency:    3.1864099711
  - # 5
    frequency:    4.9975139620
  - # 6
    frequency:    6.4157139562
  - # 7
    frequency:    6.4364822955
  - # 8
    frequency:    7.8386888640
  - # 9
    frequency:    9.1604054389
  - # 10
    frequency:   10.0803721932
  - # 11
    frequency:   10.7425716487
  - # 12
    frequency:   13.0100281190
  - # 13
    frequency:   13.1127306668
  - # 14
    frequency:   15.2182944042
  - # 15
    frequency:   18.9926535510

- q-position: [    0.1166667,    0.5000000,    0.0000000 ]
  band:
  - # 1
    frequency:   -3.5685414049
  - # 2
    frequency:    2.3342706568
  - # 3
    frequency:    3.1706437438
  - # 4
    frequency:    3.1869348462
  - # 5
    frequency:    5.2561346418
  - # 6
    frequency:    6.5119674566
  - # 7
    frequency:    6.5467760278
  - # 8
    frequency:    7.7488174178
  - # 9
    frequency:    9.0697781449
  - # 10
    frequency:   10.0859920026
  - # 11
    frequency:   10.8678686003
  - # 12
    frequency:   12.9497172921
  - # 13
    frequency:   13.0790310755
  - # 14
    frequency:   15.1733971764
  - # 15
    frequency:   19.1505853022

- q-position: [    0.1333333,    0.5000000,    0.0000000 ]
  band:
  - # 1
    frequency:   -3.5377346798
  - # 2
    frequency:    2.8476323022
  - # 3
    frequency:    3.1669229874
  - # 4
    frequency:    3.1875286452
  - # 5
    frequency:    5.6204451145
  - # 6
    frequency:    6.6169703537
  - # 7
    frequency:    6.6709533653
  - # 8
    frequency:    7.6421810108
  - # 9
    frequency:    8.9915953995
  - # 10
    frequency:   10.0923106110
  - # 11
    frequency:   10.9906279848
  - # 12
    frequency:   12.8858058300
  - # 13
    frequency:   13.0400772123
  - # 14
    frequency:   15.1227748405
  - # 15
    frequency:   19.3221415210

- q-position: [    0.1500000,    0.5000000,    0.0000000 ]
  band:
  - # 1
    frequency:   -3.5050470615
  - # 2
    frequency:    3.1416115261
  - # 3
    frequency:    3.1630814514
  - # 4
    frequency:    3.1881793565
  - # 5
    frequency:    6.0660368370
  - # 6
    frequency:    6.7290727562
  - # 7
    frequency:    6.8078044089
  - # 8
    frequency:    7.5199111623
  - # 9
    frequency:    8.9255619356
  - # 10
    frequency:   10.0992505100
  - # 11
    frequency:   11.1106690009
  - # 12
    frequency:   12.8200014043
  - # 13
    frequency:   12.9958483469
  - # 14
    frequency:   15.0668661948
  - # 15
    frequency:   19.5038111331

- q-position: [    0.1666667,    0.5000000,    0.0000000 ]
  band:
  - # 1
    frequency:   -3.4710187324
  - # 2
    frequency:    3.1592596467
  - # 3
    frequency:    3.1888729646
  - # 4
    frequency:    3.3062110455
  - # 5
    frequency:    6.5497038395
  - # 6
    frequency:    6.8472244893
  - # 7
    frequency:    6.9560465271
  - # 8
    frequency:    7.3839418785
  - # 9
    frequency:    8.8705293829
  - # 10
    frequency:   10.1067256087
  - # 11
    frequency:   11.2279278945
  - # 12
    frequency:   12.7539922784
  - # 13
    frequency:   12.9463259911
  - # 14
    frequency:   15.0061278372
  - # 15
    frequency:   19.6921178095

- q-position: [    0.1833333,    0.5000000,    0.0000000 ]
  band:
  - # 1
    frequency:   -3.4361474550
  - # 2
    frequency:    3.1556140653
  - # 3
    frequency:    3.1895951422
  - # 4
    frequency:    3.3964392252
  - # 5
    frequency:    6.9589147741
  - # 6
    frequency:    7.0476751807
  - # 7
    frequency:    7.1143575372
  - # 8
    frequency:    7.2366425692
  - # 9
    frequency:    8.8248986857
  - # 10
    frequency:   10.1146444427
  - # 11
    frequency:   11.3424205349
  - # 12
    frequency:   12.6894653185
  - # 13
    frequency:   12.8914951619
  - # 14
    frequency:   14.9410233639
  - # 15
    frequency:   19.8837088393

- q-position: [    0.2000000,    0.5000000,    0.0000000 ]
  band:
  - # 1
    frequency:   -3.4008854894
  - # 2
    frequency:    3.1523163792
  - # 3
    frequency:    3.1903329771
  - # 4
    frequency:    3.4436167255
  - # 5
    frequency:    7.0804767200
  - # 6
    frequency:    7.0876597978
  - # 7
    frequency:    7.2814061991
  - # 8
    frequency:    7.5142896416
  - # 9
    frequency:    8.7869843194
  - # 10
    frequency:   10.1229134346
  - # 11
    frequency:   11.4542187767
  - # 12
    frequency:   12.6281407770
  - # 13
    frequency:   12.8313457357
  - # 14
    frequency:   14.8720139655
  - # 15
    frequency:   20.0754335699

- q-position: [    0.2166667,    0.5000000,    0.0000000 ]
  band:
  - # 1
    frequency:   -3.3656404626
  - # 2
    frequency:    3.1495520938
  - # 3
    frequency:    3.1910763255
  - # 4
    frequency:    3.4650467010
  - # 5
    frequency:    6.9177872365
  - # 6
    frequency:    7.2121805081
  - # 7
    frequency:    7.4558772960
  - # 8
    frequency:    7.9584598363
  - # 9
    frequency:    8.7552461178
  - # 10
    frequency:   10.1314395969
  - # 11
    frequency:   11.5634335043
  - # 12
    frequency:   12.5718163931
  - # 13
    frequency:   12.7658740509
  - # 14
    frequency:   14.7995509828
  - # 15
    frequency:   20.2644104324

- q-position: [    0.2333333,    0.5000000,    0.0000000 ]
  band:
  - # 1
    frequency:   -3.3307778928
  - # 2
    frequency:    3.1475184465
  - # 3
    frequency:    3.1918184796
  - # 4
    frequency:    3.4705079352
  - # 5
    frequency:    6.7507089214
  - # 6
    frequency:    7.3360706571
  - # 7
    frequency:    7.6364896426
  - # 8
    frequency:    8.3695480130
  - # 9
    frequency:    8.7283909253
  - # 10
    frequency:   10.1401322232
  - # 11
    frequency:   11.6702011355
  - # 12
    frequency:   12.5224106391
  - # 13
    frequency:   12.6950849877
  - # 14
    frequency:   14.7240707647
  - # 15
    frequency:   20.4480805935

- q-position: [    0.2500000,    0.5000000,    0.0000000 ]
  band:
  - # 1
    frequency:   -3.2966236566
  - # 2