40
3

   1
    0.01000000000000     0.00000000000000     0.00000000000000
    -0.08121507946977    -0.00000000000004    -0.00000000000003
     0.02269886482975    -0.00000000000003    -0.00000000000003
    -0.00620602855791    -0.00000000000000    -0.00000000000003
     0.00569004477374    -0.00000000000001    -0.00000000000003
    -0.00620602855791    -0.00000000000003    -0.00000000000001
     0.00569004477374    -0.00000000000003    -0.00000000000001
    -0.00161825411075    -0.00000000000001    -0.00000000000001
     0.00156130245897    -0.00000000000000    -0.00000000000001
     0.00375476575587     0.01210994886440     0.01210994886440
     0.00385944954078    -0.01204924902625    -0.01204924902624
     0.00375476575587    -0.01210994886417     0.01210994886441
     0.00385944954078     0.01204924902648    -0.01204924902624
     0.00375476575587     0.01210994886441    -0.01210994886417
     0.00385944954078    -0.01204924902625     0.01204924902648
     0.00375476575587    -0.01210994886417    -0.01210994886417
     0.00385944954078     0.01204924902648     0.01204924902648
     0.00259923081138    -0.00068423063196    -0.00000000000016
     0.00234692770766     0.00090189085452    -0.00000000000016
     0.00259923081138     0.00068423063196    -0.00000000000016
     0.00234692770767    -0.00090189085452    -0.00000000000015
     0.00015243108701    -0.00140436555857    -0.00000000000005
     0.00013235342778     0.00138805004011    -0.00000000000005
     0.00015243108701     0.00140436555858    -0.00000000000005
     0.00013235342779    -0.00138805004010    -0.00000000000005
     0.00259923081138    -0.00000000000016    -0.00068423063196
     0.00234692770767    -0.00000000000016     0.00090189085453
     0.00015243108701    -0.00000000000005    -0.00140436555858
     0.00013235342779    -0.00000000000005     0.00138805004011
     0.00259923081138    -0.00000000000016     0.00068423063196
     0.00234692770767    -0.00000000000015    -0.00090189085452
     0.00015243108701    -0.00000000000005     0.00140436555858
     0.00013235342779    -0.00000000000005    -0.00138805004010
     0.00688830691280     0.00001531116191     0.00001531116191
    -0.00483218177826    -0.00000908959941    -0.00000908959941
     0.00688830691281    -0.00001531116191     0.00001531116192
    -0.00483218177825     0.00000908959942    -0.00000908959941
     0.00688830691280     0.00001531116191    -0.00001531116191
    -0.00483218177825    -0.00000908959941     0.00000908959942
     0.00688830691281    -0.00001531116191    -0.00001531116191
    -0.00483218177825     0.00000908959942     0.00000908959942

   9
    0.01000000000000     0.00000000000000     0.00000000000000
     0.00387097835201     0.01202344187739     0.01202344187739
     0.00374334742046    -0.01213627293031    -0.01213627293031
     0.00387097835201    -0.01202344187743     0.01202344187740
     0.00374334742046     0.01213627293027    -0.01213627293031
     0.00387097835201     0.01202344187740    -0.01202344187743
     0.00374334742046    -0.01213627293031     0.01213627293027
     0.00387097835201    -0.01202344187743    -0.01202344187744
     0.00374334742046     0.01213627293027     0.01213627293027
    -0.14223352029262     0.00000000000006     0.00000000000005
     0.13069533627425     0.00000000000006     0.00000000000006
    -0.00214273703530     0.00000000000017     0.00000000000006
     0.00488526777696     0.00000000000018     0.00000000000006
    -0.00214273703529     0.00000000000006     0.00000000000018
     0.00488526777696     0.00000000000006     0.00000000000017
    -0.00509132501533     0.00000000000018     0.00000000000018
     0.00482909502782     0.00000000000018     0.00000000000018
     0.01640710952672    -0.00000000000001    -0.00011459122887
    -0.01289021508269    -0.00000000000001     0.00018016999494
     0.00231529829123     0.00000000000001    -0.00006492156339
    -0.00253099118243     0.00000000000001     0.00001401428454
     0.01640710952672    -0.00000000000001     0.00011459122865
    -0.01289021508269    -0.00000000000000    -0.00018016999515
     0.00231529829123     0.00000000000001     0.00006492156319
    -0.00253099118243     0.00000000000001    -0.00001401428475
     0.01640710952672    -0.00011459122887    -0.00000000000001
    -0.01289021508269     0.00018016999494    -0.00000000000000
     0.01640710952672     0.00011459122865    -0.00000000000001
    -0.01289021508268    -0.00018016999515    -0.00000000000000
     0.00231529829122    -0.00006492156340     0.00000000000001
    -0.00253099118243     0.00001401428454     0.00000000000001
     0.00231529829123     0.00006492156319     0.00000000000002
    -0.00253099118243    -0.00001401428474     0.00000000000001
    -0.02416184795049    -0.00000000000001    -0.00000000000001
    -0.02009090370652    -0.00000000000000    -0.00000000000001
     0.00163383410679     0.00000000000001    -0.00000000000000
     0.00182426725004     0.00000000000001    -0.00000000000000
     0.00163383410679    -0.00000000000001     0.00000000000001
     0.00182426725004    -0.00000000000000     0.00000000000002
    -0.00002233649902     0.00000000000001     0.00000000000001
     0.00001212866373     0.00000000000002     0.00000000000001

  17
    0.00707106781187     0.00000000000000     0.00707106781187
     0.00164447528789    -0.00066712841862     0.00486342561381
     0.00185277584845     0.00045446856461     0.00487763521645
     0.00164447528789     0.00066712841858     0.00486342561381
     0.00185277584845    -0.00045446856465     0.00487763521645
     0.00010325932426    -0.00097626048072    -0.00340719630633
     0.00009814704422     0.00099830812691    -0.00342669782208
     0.00010325932425     0.00097626048068    -0.00340719630633
     0.00009814704422    -0.00099830812695    -0.00342669782208
     0.01161182479064     0.00000000000005    -0.01469683678003
    -0.00921745747723     0.00000000000006     0.00125605742175
     0.00162944303761     0.00000000000018     0.00125056823332
    -0.00178588083685     0.00000000000017     0.00001687705501
     0.01158265572980     0.00000000000006    -0.01662930677775
    -0.00901166420742     0.00000000000006     0.00118956638026
     0.00164433356364     0.00000000000018     0.00119477101971
    -0.00179302539000     0.00000000000017    -0.00002409820153
    -0.04653866626342    -0.00000000000001    -0.09160735474646
     0.00151698267773    -0.00000000000001    -0.00373668072455
    -0.00164084424046     0.00000000000001    -0.00373651784161
     0.00254939696572     0.00000000000001    -0.00064942589852
    -0.00043689057809    -0.00000000000000     0.04570630791928
     0.00303627267971    -0.00000000000000     0.00575020319504
    -0.00041228513687     0.00000000000001     0.00574981896674
     0.00046580709882     0.00000000000001     0.00070112785407
    -0.00179554731370    -0.01950928022172     0.00801647692320
     0.00132056840348    -0.00195594588964    -0.00024805605072
    -0.00179554731369     0.01950928022150     0.00801647692321
     0.00132056840348     0.00195594588943    -0.00024805605072
    -0.00175098161461     0.01934431139421     0.00806382626104
     0.00131272216497     0.00193130424735    -0.00022055245534
    -0.00175098161460    -0.01934431139442     0.00806382626104
     0.00131272216497    -0.00193130424755    -0.00022055245534
    -0.01135013298687    -0.00000000000001    -0.00054576079470
     0.02775254184346    -0.00000000000000     0.01666152020715
    -0.00218513971245     0.00000000000001    -0.00104149962469
     0.00171318256779     0.00000000000001     0.00055019570002
     0.02718652716902    -0.00000000000001     0.01635493714831
    -0.01142261187572    -0.00000000000000    -0.00030634569426
     0.00170523632872     0.00000000000001     0.00057474618983
    -0.00217044403722     0.00000000000001    -0.00102059296644
