135
3

   1
    0.01000000000000     0.00000000000000     0.00000000000000
    -0.08219072848926    -0.00000000000005    -0.00000000000006
     0.01186433997602    -0.00000000000005    -0.00000000000005
     0.01175637174352    -0.00000000000006    -0.00000000000006
    -0.00361179028345    -0.00002049872932    -0.00000000000005
     0.00167616268447     0.00167410076690    -0.00000000000006
     0.00167372905819    -0.00166296216511    -0.00000000000005
    -0.00361179028346     0.00002049872931    -0.00000000000006
     0.00167616268446    -0.00167410076689    -0.00000000000005
     0.00167372905820     0.00166296216512    -0.00000000000007
    -0.00361179028345    -0.00000000000005    -0.00002049872932
     0.00167616268446    -0.00000000000005     0.00167410076690
     0.00167372905820    -0.00000000000005    -0.00166296216510
    -0.00071245631649    -0.00000444204064    -0.00000444204063
     0.00035669711620     0.00028689170885     0.00028689170885
     0.00035887999367    -0.00028557312155    -0.00028557312155
    -0.00071245631649     0.00000444204065    -0.00000444204063
     0.00035669711619    -0.00028689170881     0.00028689170884
     0.00035887999366     0.00028557312157    -0.00028557312156
    -0.00361179028347    -0.00000000000006     0.00002049872931
     0.00167616268446    -0.00000000000005    -0.00167410076689
     0.00167372905820    -0.00000000000006     0.00166296216513
    -0.00071245631649    -0.00000444204064     0.00000444204065
     0.00035669711618     0.00028689170883    -0.00028689170881
     0.00035887999367    -0.00028557312156     0.00028557312157
    -0.00071245631650     0.00000444204065     0.00000444204065
     0.00035669711618    -0.00028689170882    -0.00028689170882
     0.00035887999365     0.00028557312156     0.00028557312157
     0.00179841246275     0.01350238135053     0.01350238135053
     0.00387322751730     0.00000557474469     0.00000557474470
     0.00189458023140    -0.01344812806418    -0.01344812806419
    -0.00052487837807     0.00000000000006     0.00029222804699
     0.00108545358899     0.00000000000003     0.00000144452190
    -0.00051625678548     0.00000000000004    -0.00029306852854
     0.00179841246281    -0.01350238135021     0.01350238135059
     0.00387322751728    -0.00000557474436     0.00000557474473
     0.00189458023138     0.01344812806455    -0.01344812806415
    -0.00052487837809     0.00029222804698     0.00000000000006
     0.00108545358901     0.00000144452191     0.00000000000005
    -0.00051625678548    -0.00029306852853     0.00000000000007
    -0.00026491927988     0.00000000000005     0.00000000000006
     0.00053959943929     0.00000000000003     0.00000000000004
    -0.00025996471476     0.00000000000001     0.00000000000005
    -0.00052487837802    -0.00029222804666     0.00000000000007
     0.00108545358897    -0.00000144452156     0.00000000000005
    -0.00051625678547     0.00029306852892     0.00000000000002
     0.00179841246281     0.01350238135060    -0.01350238135022
     0.00387322751728     0.00000557474474    -0.00000557474438
     0.00189458023138    -0.01344812806416     0.01344812806454
    -0.00052487837804     0.00000000000004    -0.00029222804668
     0.00108545358897     0.00000000000002    -0.00000144452157
    -0.00051625678547     0.00000000000003     0.00029306852890
     0.00179841246283    -0.01350238135022    -0.01350238135024
     0.00387322751727    -0.00000557474435    -0.00000557474438
     0.00189458023141     0.01344812806459     0.01344812806458
     0.00350722480220    -0.00125204448003    -0.00000000000027
    -0.00182371293132    -0.00000511282048    -0.00000000000025
     0.00326287424962     0.00147553142794    -0.00000000000025
     0.00037807633093    -0.00000000000002    -0.00000000000025
    -0.00075357299198     0.00000000000000    -0.00000000000023
     0.00037214886260    -0.00000000000001    -0.00000000000024
     0.00350722480220     0.00125204448002    -0.00000000000025
    -0.00182371293131     0.00000511282047    -0.00000000000024
     0.00326287424962    -0.00147553142794    -0.00000000000022
     0.00040813814399    -0.00090228788997    -0.00222216261151
    -0.00066278013842    -0.00000092738186    -0.00000184580343
     0.00039844281307     0.00089510719368     0.00222144522389
     0.00014768842555    -0.00000000000002    -0.00033456622917
    -0.00029407292728    -0.00000000000001    -0.00000066504582
     0.00014500922473    -0.00000000000001     0.00033429804713
     0.00040813814398     0.00090228788998    -0.00222216261151
    -0.00066278013842     0.00000092738188    -0.00000184580342
     0.00039844281307    -0.00089510719368     0.00222144522389
     0.00040813814398    -0.00090228788998     0.00222216261142
    -0.00066278013840    -0.00000092738188     0.00000184580333
     0.00039844281308     0.00089510719367    -0.00222144522398
     0.00014768842553     0.00000000000001     0.00033456622908
    -0.00029407292728    -0.00000000000001     0.00000066504573
     0.00014500922472    -0.00000000000001    -0.00033429804721
     0.00040813814397     0.00090228788999     0.00222216261142
    -0.00066278013841     0.00000092738187     0.00000184580334
     0.00039844281305    -0.00089510719370    -0.00222144522399
     0.00350722480220    -0.00000000000028    -0.00125204448002
    -0.00182371293131    -0.00000000000025    -0.00000511282048
     0.00326287424962    -0.00000000000026     0.00147553142794
     0.00040813814400    -0.00222216261151    -0.00090228788997
    -0.00066278013842    -0.00000184580343    -0.00000092738186
     0.00039844281307     0.00222144522390     0.00089510719367
     0.00040813814398     0.00222216261142    -0.00090228788998
    -0.00066278013840     0.00000184580334    -0.00000092738188
     0.00039844281307    -0.00222144522398     0.00089510719367
     0.00037807633093    -0.00000000000027    -0.00000000000002
    -0.00075357299198    -0.00000000000023    -0.00000000000001
     0.00037214886260    -0.00000000000024    -0.00000000000003
     0.00014768842555    -0.00033456622918    -0.00000000000003
    -0.00029407292728    -0.00000066504581    -0.00000000000002
     0.00014500922473     0.00033429804713    -0.00000000000003
     0.00014768842553     0.00033456622909    -0.00000000000001
    -0.00029407292727     0.00000066504572    -0.00000000000002
     0.00014500922472    -0.00033429804722    -0.00000000000002
     0.00350722480221    -0.00000000000025     0.00125204448003
    -0.00182371293131    -0.00000000000024     0.00000511282049
     0.00326287424961    -0.00000000000022    -0.00147553142794
     0.00040813814397    -0.00222216261151     0.00090228789000
    -0.00066278013842    -0.00000184580342     0.00000092738189
     0.00039844281307     0.00222144522390    -0.00089510719367
     0.00040813814397     0.00222216261142     0.00090228788999
    -0.00066278013841     0.00000184580334     0.00000092738188
     0.00039844281306    -0.00222144522398    -0.00089510719368
     0.00751881671550     0.00001629089629     0.00001629089629
    -0.00273903407866    -0.00110941635713    -0.00110941635714
    -0.00274542060508     0.00109988592092     0.00109988592092
     0.00097283980247    -0.00000000000001     0.00000129198909
    -0.00047346009190    -0.00000000000002    -0.00018792024879
    -0.00047788123664    -0.00000000000000     0.00018667651943
     0.00751881671552    -0.00001629089628     0.00001629089629
    -0.00273903407866     0.00110941635715    -0.00110941635716
    -0.00274542060508    -0.00109988592092     0.00109988592091
     0.00097283980246     0.00000129198909    -0.00000000000003
    -0.00047346009190    -0.00018792024880    -0.00000000000003
    -0.00047788123663     0.00018667651943    -0.00000000000001
     0.00039444285398    -0.00000000000000    -0.00000000000002
    -0.00019547342809    -0.00000000000001    -0.00000000000002
    -0.00019790800788    -0.00000000000000    -0.00000000000002
     0.00097283980249    -0.00000129198909    -0.00000000000003
    -0.00047346009190     0.00018792024882    -0.00000000000002
    -0.00047788123664    -0.00018667651944    -0.00000000000001
     0.00751881671553     0.00001629089629    -0.00001629089628
    -0.00273903407866    -0.00110941635716     0.00110941635717
    -0.00274542060508     0.00109988592091    -0.00109988592091
     0.00097283980248    -0.00000000000001    -0.00000129198908
    -0.00047346009189    -0.00000000000002     0.00018792024882
    -0.00047788123664    -0.00000000000001    -0.00018667651943
     0.00751881671556    -0.00001629089630    -0.00001629089628
    -0.00273903407865     0.00110941635715     0.00110941635716
    -0.00274542060509    -0.00109988592093    -0.00109988592092

  28
    0.01000000000000     0.00000000000000     0.00000000000000
     0.00189819793438     0.01342575341880     0.01342575341879
     0.00179461255741    -0.01352551109937    -0.01352551109937
     0.00387352843917    -0.00001676411348    -0.00001676411348
     0.00189819793438    -0.01342575341886     0.01342575341880
     0.00179461255742     0.01352551109933    -0.01352551109938
     0.00387352843917     0.00001676411343    -0.00001676411348
    -0.00051188745961    -0.00000000000000     0.00029523105383
    -0.00052928814690    -0.00000000000000    -0.00029009879791
     0.00108549325079     0.00000000000001    -0.00000264369413
     0.00189819793439     0.01342575341881    -0.01342575341886
     0.00179461255742    -0.01352551109937     0.01352551109934
     0.00387352843917    -0.00001676411348     0.00001676411344
     0.00189819793438    -0.01342575341885    -0.01342575341884
     0.00179461255744     0.01352551109934     0.01352551109935
     0.00387352843918     0.00001676411344     0.00001676411344
    -0.00051188745961     0.00000000000000    -0.00029523105387
    -0.00052928814690     0.00000000000002     0.00029009879788
     0.00108549325079     0.00000000000000     0.00000264369407
    -0.00051188745962     0.00029523105383    -0.00000000000000
    -0.00052928814690    -0.00029009879792    -0.00000000000000
     0.00108549325079    -0.00000264369412     0.00000000000001
    -0.00051188745961    -0.00029523105388    -0.00000000000000
    -0.00052928814690     0.00029009879787     0.00000000000002
     0.00108549325080     0.00000264369407     0.00000000000000
    -0.00025941323519     0.00000000000000     0.00000000000001
    -0.00026549155490     0.00000000000001     0.00000000000000
     0.00053961951905    -0.00000000000000    -0.00000000000000
    -0.15525282229669     0.00000000000003     0.00000000000002
     0.07200560954157     0.00000000000005     0.00000000000005
     0.07169764239066     0.00000000000009     0.00000000000008
    -0.00348832340933    -0.00019719057391     0.00000000000005
     0.00240942700921     0.00617317572226     0.00000000000001
     0.00245104699761    -0.00607777371926     0.00000000000008
    -0.00348832340929     0.00019719057428     0.00000000000008
     0.00240942700922    -0.00617317572193     0.00000000000008
     0.00245104699761     0.00607777371958     0.00000000000012
    -0.00348832340934     0.00000000000003    -0.00019719057391
     0.00240942700923     0.00000000000002     0.00617317572227
     0.00245104699761     0.00000000000009    -0.00607777371923
    -0.00263056371951    -0.00000969246606    -0.00000969246605
     0.00127731143626     0.00099592976974     0.00099592976976
     0.00128984395456    -0.00098319442172    -0.00098319442168
    -0.00263056371944     0.00000969246639    -0.00000969246603
     0.00127731143625    -0.00099592976939     0.00099592976977
     0.00128984395453     0.00098319442203    -0.00098319442171
    -0.00348832340929     0.00000000000009     0.00019719057426
     0.00240942700922     0.00000000000009    -0.00617317572195
     0.00245104699761     0.00000000000010     0.00607777371957
    -0.00263056371945    -0.00000969246606     0.00000969246637
     0.00127731143625     0.00099592976974    -0.00099592976940
     0.00128984395453    -0.00098319442170     0.00098319442201
    -0.00263056371943     0.00000969246639     0.00000969246638
     0.00127731143627    -0.00099592976942    -0.00099592976944
     0.00128984395454     0.00098319442205     0.00098319442205
     0.01790645434217    -0.00000000000002    -0.00014162906230
    -0.00726064767756    -0.00000000000002     0.01166559031473
    -0.00719263622098    -0.00000000000001    -0.01146390238042
     0.00185704923270     0.00001198564630    -0.00003737811406
    -0.00097804247271    -0.00096149249816     0.00088209730804
    -0.00098732171789     0.00094845752707    -0.00086887040439
     0.00185704923271    -0.00001198564630    -0.00003737811406
    -0.00097804247273     0.00096149249817     0.00088209730803
    -0.00098732171788    -0.00094845752706    -0.00086887040437
     0.01790645434219     0.00000000000000     0.00014162906196
    -0.00726064767756     0.00000000000002    -0.01166559031503
    -0.00719263622099    -0.00000000000001     0.01146390238012
     0.00185704923274     0.00001198564630     0.00003737811376
    -0.00097804247272    -0.00096149249816    -0.00088209730833
    -0.00098732171790     0.00094845752707     0.00086887040410
     0.00185704923271    -0.00001198564631     0.00003737811376
    -0.00097804247273     0.00096149249816    -0.00088209730832
    -0.00098732171790    -0.00094845752707     0.00086887040410
     0.00094419356530    -0.00000000000001    -0.00000000000004
    -0.00040158453153    -0.00000000000001    -0.00000000000005
    -0.00041290151520    -0.00000000000002    -0.00000000000004
     0.00060989658824     0.00000277280228    -0.00000000000004
    -0.00030273982480    -0.00015621534912    -0.00000000000003
    -0.00030736042449     0.00015443261094    -0.00000000000004
     0.00060989658823    -0.00000277280225    -0.00000000000004
    -0.00030273982480     0.00015621534910    -0.00000000000004
    -0.00030736042448    -0.00015443261096    -0.00000000000005
     0.01790645434217    -0.00014162906230    -0.00000000000001
    -0.00726064767756     0.01166559031473    -0.00000000000002
    -0.00719263622098    -0.01146390238042    -0.00000000000002
     0.01790645434220     0.00014162906198     0.00000000000000
    -0.00726064767756    -0.01166559031502     0.00000000000002
    -0.00719263622099     0.01146390238013    -0.00000000000002
     0.00094419356530    -0.00000000000004    -0.00000000000001
    -0.00040158453153    -0.00000000000005    -0.00000000000000
    -0.00041290151521    -0.00000000000005    -0.00000000000002
     0.00185704923270    -0.00003737811407     0.00001198564630
    -0.00097804247272     0.00088209730804    -0.00096149249817
    -0.00098732171788    -0.00086887040438     0.00094845752705
     0.00185704923274     0.00003737811376     0.00001198564629
    -0.00097804247272    -0.00088209730832    -0.00096149249817
    -0.00098732171791     0.00086887040410     0.00094845752705
     0.00060989658824    -0.00000000000004     0.00000277280226
    -0.00030273982479    -0.00000000000004    -0.00015621534913
    -0.00030736042449    -0.00000000000005     0.00015443261093
     0.00185704923271    -0.00003737811406    -0.00001198564629
    -0.00097804247272     0.00088209730803     0.00096149249819
    -0.00098732171789    -0.00086887040437    -0.00094845752706
     0.00185704923271     0.00003737811376    -0.00001198564630
    -0.00097804247273    -0.00088209730831     0.00096149249817
    -0.00098732171789     0.00086887040411    -0.00094845752706
     0.00060989658823    -0.00000000000004    -0.00000277280225
    -0.00030273982480    -0.00000000000005     0.00015621534911
    -0.00030736042448    -0.00000000000005    -0.00015443261094
    -0.00892481894883    -0.00000000000001    -0.00000000000001
    -0.00496607835513     0.00000000000001     0.00000000000000
    -0.03038342587183    -0.00000000000001    -0.00000000000001
     0.00259351815335     0.00096475720476    -0.00000000000002
     0.00269108968516    -0.00096058178001     0.00000000000002
    -0.00354893604810    -0.00001223186563    -0.00000000000001
     0.00259351815335    -0.00096475720476    -0.00000000000002
     0.00269108968516     0.00096058177999    -0.00000000000001
    -0.00354893604810     0.00001223186564    -0.00000000000002
     0.00259351815334    -0.00000000000002     0.00096475720475
     0.00269108968516     0.00000000000001    -0.00096058178002
    -0.00354893604809    -0.00000000000000    -0.00001223186564
     0.00065034472190     0.00082802377351     0.00082802377350
     0.00066546537911    -0.00083184177055    -0.00083184177056
    -0.00131977665879    -0.00000313084513    -0.00000313084515
     0.00065034472189    -0.00082802377349     0.00082802377349
     0.00066546537912     0.00083184177054    -0.00083184177056
    -0.00131977665880     0.00000313084512    -0.00000313084514
     0.00259351815335    -0.00000000000001    -0.00096475720475
     0.00269108968516    -0.00000000000002     0.00096058178001
    -0.00354893604809    -0.00000000000002     0.00001223186565
     0.00065034472189     0.00082802377350    -0.00082802377348
     0.00066546537912    -0.00083184177055     0.00083184177055
    -0.00131977665880    -0.00000313084513     0.00000313084513
     0.00065034472190    -0.00082802377350    -0.00082802377349
     0.00066546537913     0.00083184177055     0.00083184177055
    -0.00131977665880     0.00000313084513     0.00000313084514

  55
    0.00707106781187     0.00000000000000     0.00707106781187
     0.00228627154490    -0.00107558577011     0.00530820090532
     0.00250061323398     0.00085310113333     0.00532462665970
    -0.00128947977022     0.00000037424625     0.00068786728658
     0.00228627154490     0.00107558577006     0.00530820090533
     0.00250061323399    -0.00085310113337     0.00532462665969
    -0.00128947977022    -0.00000037424630     0.00068786728659
     0.00026349632302    -0.00000000000000     0.00068804205239
     0.00026696525494    -0.00000000000000     0.00068764952831
    -0.00053282795261     0.00000000000000     0.00027888066611
     0.00185915307838     0.00093376154818    -0.00114872290680
    -0.00128538406569     0.00221869841356    -0.00272192490698
    -0.00047006098866     0.00023732576391    -0.00033431446086
     0.00185915307837    -0.00093376154822    -0.00114872290678
    -0.00128538406568    -0.00221869841359    -0.00272192490697
    -0.00047006098864    -0.00023732576395    -0.00033431446086
     0.00033985516074     0.00000000000000    -0.00020150442680
    -0.00013275171917     0.00000000000001    -0.00046617479184
    -0.00020811652872     0.00000000000000    -0.00013772077788
    -0.00128641844879    -0.00219454037801    -0.00271846539903
     0.00185334754571    -0.00093756049478    -0.00116733264828
    -0.00046723915483    -0.00023563211211    -0.00033834945032
    -0.00128641844878     0.00219454037796    -0.00271846539903
     0.00185334754571     0.00093756049473    -0.00116733264827
    -0.00046723915482     0.00023563211206    -0.00033834945033
    -0.00013321290244     0.00000000000000    -0.00047132459302
     0.00034004542207     0.00000000000001    -0.00020628375694
    -0.00020776476607    -0.00000000000001    -0.00014040966701
     0.01266908745514     0.00000000000002    -0.00398311730828
    -0.01336196057976     0.00000000000005     0.00121937534742
     0.00303312675086     0.00000000000009     0.00255242684278
     0.00131011852087    -0.00817917507496     0.00188521499840
    -0.00130908413397    -0.00129464378372    -0.00011365739371
    -0.00007957319665     0.00006094968048     0.00105940933205
     0.00131011852091     0.00817917507532     0.00188521499843
    -0.00130908413397     0.00129464378404    -0.00011365739363
    -0.00007957319666    -0.00006094968016     0.00105940933209
     0.00066760255890     0.00000000000003    -0.02148244173209
    -0.00029178152379     0.00000000000002    -0.00251865332539
    -0.00028408630216     0.00000000000010    -0.00250017418793
     0.00043123751072    -0.00000479084835    -0.00250933274189
    -0.00021601632487    -0.00011085167175    -0.00093376602418
    -0.00021536611975     0.00010879208069    -0.00093254478412
     0.00043123751080     0.00000479084868    -0.00250933274187
    -0.00021601632488     0.00011085167210    -0.00093376602417
    -0.00021536611978    -0.00010879208039    -0.00093254478414
     0.01264527122414     0.00000000000010    -0.00587577802844
     0.00310161109218     0.00000000000009     0.00254528228045
    -0.01321220620093     0.00000000000011     0.00115671736266
     0.00131576606963     0.00817449478891     0.00185146377293
    -0.00007191554885    -0.00005129413949     0.00104449084627
    -0.00131853520208     0.00129385672576    -0.00012954386325
     0.00131576606965    -0.00817449478858     0.00185146377293
    -0.00007191554884     0.00005129413981     0.00104449084623
    -0.00131853520207    -0.00129385672541    -0.00012954386320
    -0.04683313961788    -0.00000000000002    -0.09520136843870
     0.00088982518659    -0.00000000000003    -0.00296322247806
     0.00091520993370    -0.00000000000002    -0.00294720289913
    -0.00106645752386    -0.00001114516134    -0.00295510948062
     0.00075431850360     0.00062190484427    -0.00066231729356
     0.00076612090066    -0.00063290562593    -0.00066166736178
    -0.00106645752385     0.00001114516135    -0.00295510948062
     0.00075431850359    -0.00062190484426    -0.00066231729357
     0.00076612090067     0.00063290562594    -0.00066166736176
    -0.00042121392872     0.00000000000000     0.02470105992495
     0.00205772207588     0.00000000000002     0.00317533427959
    -0.00031070830142    -0.00000000000001     0.00078976923450
    -0.00025083497410     0.00118101425208     0.00197724821755
     0.00036597432757     0.00030700974316     0.00056851974629
    -0.00010124767969     0.00016091443535     0.00010068991734
    -0.00025083497413    -0.00118101425209     0.00197724821755
     0.00036597432756    -0.00030700974316     0.00056851974630
    -0.00010124767969    -0.00016091443536     0.00010068991735
    -0.00042856386549    -0.00000000000001     0.02458790419891
    -0.00032231428777    -0.00000000000001     0.00081378615381
     0.00203073243107    -0.00000000000002     0.00314942967513
    -0.00025046804761    -0.00117959853427     0.00198669801055
    -0.00010175829942    -0.00016094459457     0.00010773789962
     0.00036560867723    -0.00030573671570     0.00057441795447
    -0.00025046804763     0.00117959853429     0.00198669801055
    -0.00010175829941     0.00016094459455     0.00010773789961
     0.00036560867723     0.00030573671569     0.00057441795446
    -0.00189703233709    -0.02183373815539     0.00679411082931
     0.00130609628141    -0.00194352256452    -0.00013941154623
     0.00013984933403    -0.00075652810941    -0.00086207357998
    -0.00189703233707     0.02183373815507     0.00679411082934
     0.00130609628140     0.00194352256422    -0.00013941154619
     0.00013984933401     0.00075652810911    -0.00086207357998
    -0.00030099783199    -0.00000000000004    -0.00025025143364
     0.00026824561438    -0.00000000000005    -0.00003698948700
     0.00000914059176    -0.00000000000005    -0.00022722089763
    -0.00030105950211    -0.00000989658291     0.00239080639503
     0.00013921507573    -0.00013153049197     0.00075171641226
     0.00013841153263     0.00012883960087     0.00074975388479
    -0.00030105950208     0.00000989658260     0.00239080639503
     0.00013921507573     0.00013153049169     0.00075171641225
     0.00013841153261    -0.00012883960116     0.00074975388480
    -0.00014125443445    -0.00000000000004     0.00061274421560
     0.00007006987887    -0.00000000000004     0.00026352855628
     0.00007021948705    -0.00000000000005     0.00026333810014
    -0.00185086319547     0.02168375536916     0.00683785572917
     0.00012886982696     0.00076238641119    -0.00085203188681
     0.00130718977240     0.00191986041059    -0.00012076821226
    -0.00185086319547    -0.02168375536946     0.00683785572917
     0.00012886982696    -0.00076238641147    -0.00085203188683
     0.00130718977239    -0.00191986041085    -0.00012076821227
    -0.00030110166734    -0.00000000000004    -0.00024461255081
     0.00000811245662    -0.00000000000005    -0.00022369083204
     0.00026974010184    -0.00000000000005    -0.00003333860707
    -0.01491063737585    -0.00000000000001    -0.00197430282309
     0.02884868832284     0.00000000000001     0.01564608128181
     0.00240766683251    -0.00000000000001    -0.00024919392777
    -0.00184110438490     0.00022167518629    -0.00102329962444
     0.00085149830920     0.00094475070933     0.00002394676058
     0.00075153009749     0.00013016733318    -0.00013201980787
    -0.00184110438490    -0.00022167518628    -0.00102329962444
     0.00085149830920    -0.00094475070935     0.00002394676055
     0.00075153009749    -0.00013016733318    -0.00013201980789
    -0.00025663239338    -0.00000000000002     0.00238825780781
    -0.00023824778983     0.00000000000001     0.00239338322761
     0.00061277932245    -0.00000000000001     0.00061276868259
    -0.00013075076903    -0.00009430177849     0.00074995945095
    -0.00012989336860     0.00009600168203     0.00075150092294
     0.00026345840214     0.00000021822534     0.00026343596149
    -0.00013075076904     0.00009430177851     0.00074995945094
    -0.00012989336860    -0.00009600168203     0.00075150092293
     0.00026345840213    -0.00000021822534     0.00026343596149
     0.02830605148419    -0.00000000000002     0.01533984179268
    -0.01497444175394    -0.00000000000002    -0.00174399453159
     0.00237391587014    -0.00000000000002    -0.00024568209231
     0.00085240042181    -0.00095446876725     0.00003784902083
    -0.00183700800547    -0.00022359340471    -0.00101273886367
     0.00074989252053    -0.00013021314215    -0.00012860248642
     0.00085240042183     0.00095446876725     0.00003784902082
    -0.00183700800547     0.00022359340471    -0.00101273886366
     0.00074989252053     0.00013021314215    -0.00012860248641
