nqpoint: 151    
natom:   5      
reciprocal_lattice:
- [   0.25173007,   0.00000000,   0.00000000 ] # a*
- [   0.00000000,   0.25173007,   0.00000000 ] # b*
- [   0.00000000,   0.00000000,   0.25173007 ] # c*
phonon:
- q-position: [    0.0000000,    0.0000000,    0.0000000 ]
  band:
  - # 1
    frequency:   -4.4685121361
  - # 2
    frequency:   -4.4685121361
  - # 3
    frequency:   -4.4685121361
  - # 4
    frequency:    0.0030685324
  - # 5
    frequency:    0.0030685324
  - # 6
    frequency:    0.0030685324
  - # 7
    frequency:    5.0799608249
  - # 8
    frequency:    5.0799608249
  - # 9
    frequency:    5.0799608249
  - # 10
    frequency:    9.2531031928
  - # 11
    frequency:    9.2531031928
  - # 12
    frequency:    9.2531031928
  - # 13
    frequency:   13.8510977574
  - # 14
    frequency:   13.8510977574
  - # 15
    frequency:   13.8510977574

- q-position: [    0.0000000,    0.0166667,    0.0000000 ]
  band:
  - # 1
    frequency:   -4.4652685219
  - # 2
    frequency:   -4.4652685219
  - # 3
    frequency:    0.1927377214
  - # 4
    frequency:    0.1927377214
  - # 5
    frequency:    0.2882030212
  - # 6
    frequency:    4.9361704862
  - # 7
    frequency:    5.0815251007
  - # 8
    frequency:    5.0815251007
  - # 9
    frequency:    9.2546018214
  - # 10
    frequency:    9.2546159437
  - # 11
    frequency:    9.2546159437
  - # 12
    frequency:   13.4905366650
  - # 13
    frequency:   13.8497930467
  - # 14
    frequency:   13.8497930467
  - # 15
    frequency:   21.9542016846

- q-position: [    0.0000000,    0.0333333,    0.0000000 ]
  band:
  - # 1
    frequency:   -4.4556196402
  - # 2
    frequency:   -4.4556196402
  - # 3
    frequency:    0.3849598521
  - # 4
    frequency:    0.3849598521
  - # 5
    frequency:    0.5736904094
  - # 6
    frequency:    4.9749143349
  - # 7
    frequency:    5.0862405964
  - # 8
    frequency:    5.0862405964
  - # 9
    frequency:    9.2590798420
  - # 10
    frequency:    9.2591527088
  - # 11
    frequency:    9.2591527088
  - # 12
    frequency:   13.5130271840
  - # 13
    frequency:   13.8458838254
  - # 14
    frequency:   13.8458838254
  - # 15
    frequency:   21.9074149232

- q-position: [    0.0000000,    0.0500000,    0.0000000 ]
  band:
  - # 1
    frequency:   -4.4398075015
  - # 2
    frequency:   -4.4398075015
  - # 3
    frequency:    0.5762009255
  - # 4
    frequency:    0.5762009255
  - # 5
    frequency:    0.8539364943
  - # 6
    frequency:    5.0383274613
  - # 7
    frequency:    5.0941744855
  - # 8
    frequency:    5.0941744855
  - # 9
    frequency:    9.2664839243
  - # 10
    frequency:    9.2667088330
  - # 11
    frequency:    9.2667088330
  - # 12
    frequency:   13.5499254505
  - # 13
    frequency:   13.8393849312
  - # 14
    frequency:   13.8393849312
  - # 15
    frequency:   21.8300979020

- q-position: [    0.0000000,    0.0666667,    0.0000000 ]
  band:
  - # 1
    frequency:   -4.4182226795
  - # 2
    frequency:   -4.4182226795
  - # 3
    frequency:    0.7658846865
  - # 4
    frequency:    0.7658846865
  - # 5
    frequency:    1.1267805347
  - # 6
    frequency:    5.1054358235
  - # 7
    frequency:    5.1054358235
  - # 8
    frequency:    5.1247092710
  - # 9
    frequency:    9.2767260637
  - # 10
    frequency:    9.2772759065
  - # 11
    frequency:    9.2772759065
  - # 12
    frequency:   13.6003578959
  - # 13
    frequency:   13.8303214436
  - # 14
    frequency:   13.8303214436
  - # 15
    frequency:   21.7232383622

- q-position: [    0.0000000,    0.0833333,    0.0000000 ]
  band:
  - # 1
    frequency:   -4.3913856512
  - # 2
    frequency:   -4.3913856512
  - # 3
    frequency:    0.9533565288
  - # 4
    frequency:    0.9533565288
  - # 5
    frequency:    1.3905422108
  - # 6
    frequency:    5.1201707589
  - # 7
    frequency:    5.1201707589
  - # 8
    frequency:    5.2317675741
  - # 9
    frequency:    9.2896848773
  - # 10
    frequency:    9.2908407508
  - # 11
    frequency:    9.2908407508
  - # 12
    frequency:   13.6631135854
  - # 13
    frequency:   13.8187292174
  - # 14
    frequency:   13.8187292174
  - # 15
    frequency:   21.5882117176

- q-position: [    0.0000000,    0.1000000,    0.0000000 ]
  band:
  - # 1
    frequency:   -4.3599218627
  - # 2
    frequency:   -4.3599218627
  - # 3
    frequency:    1.1378642692
  - # 4
    frequency:    1.1378642692
  - # 5
    frequency:    1.6440744103
  - # 6
    frequency:    5.1385549772
  - # 7
    frequency:    5.1385549772
  - # 8
    frequency:    5.3567235417
  - # 9
    frequency:    9.3052073726
  - # 10
    frequency:    9.3073839313
  - # 11
    frequency:    9.3073839313
  - # 12
    frequency:   13.7366592544
  - # 13
    frequency:   13.8046556430
  - # 14
    frequency:   13.8046556430
  - # 15
    frequency:   21.4267732354

- q-position: [    0.0000000,    0.1166667,    0.0000000 ]
  band:
  - # 1
    frequency:   -4.3245320130
  - # 2
    frequency:   -4.3245320130
  - # 3
    frequency:    1.3185533075
  - # 4
    frequency:    1.3185533075
  - # 5
    frequency:    1.8867454097
  - # 6
    frequency:    5.1607826201
  - # 7
    frequency:    5.1607826201
  - # 8
    frequency:    5.4964552740
  - # 9
    frequency:    9.3231111466
  - # 10
    frequency:    9.3268777298
  - # 11
    frequency:    9.3268777298
  - # 12
    frequency:   13.7881606477
  - # 13
    frequency:   13.7881606477
  - # 14
    frequency:   13.8191621794
  - # 15
    frequency:   21.2410473632

- q-position: [    0.0000000,    0.1333333,    0.0000000 ]
  band:
  - # 1
    frequency:   -4.2859596927
  - # 2
    frequency:   -4.2859596927
  - # 3
    frequency:    1.4944753963
  - # 4
    frequency:    1.4944753963
  - # 5
    frequency:    2.1183601627
  - # 6
    frequency:    5.1870508790
  - # 7
    frequency:    5.1870508790
  - # 8
    frequency:    5.6476687909
  - # 9
    frequency:    9.3431869642
  - # 10
    frequency:    9.3492835037
  - # 11
    frequency:    9.3492835037
  - # 12
    frequency:   13.7693179541
  - # 13
    frequency:   13.7693179541
  - # 14
    frequency:   13.9085224403
  - # 15
    frequency:   21.0335136425

- q-position: [    0.0000000,    0.1500000,    0.0000000 ]
  band:
  - # 1
    frequency:   -4.2449590105
  - # 2
    frequency:   -4.2449590105
  - # 3
    frequency:    1.6646119686
  - # 4
    frequency:    1.6646119686
  - # 5
    frequency:    2.3390420481
  - # 6
    frequency:    5.2175396409
  - # 7
    frequency:    5.2175396409
  - # 8
    frequency:    5.8070759477
  - # 9
    frequency:    9.3652016580
  - # 10
    frequency:    9.3745483568
  - # 11
    frequency:    9.3745483568
  - # 12
    frequency:   13.7482166092
  - # 13
    frequency:   13.7482166092
  - # 14
    frequency:   14.0024155596
  - # 15
    frequency:   20.8069883986

- q-position: [    0.0000000,    0.1666667,    0.0000000 ]
  band:
  - # 1
    frequency:   -4.2022649913
  - # 2
    frequency:   -4.2022649913
  - # 3
    frequency:    1.8279116889
  - # 4
    frequency:    1.8279116889
  - # 5
    frequency:    2.5491014588
  - # 6
    frequency:    5.2523860574
  - # 7
    frequency:    5.2523860574
  - # 8
    frequency:    5.9715557485
  - # 9
    frequency:    9.3889012868
  - # 10
    frequency:    9.4026010535
  - # 11
    frequency:    9.4026010535
  - # 12
    frequency:   13.7249628016
  - # 13
    frequency:   13.7249628016
  - # 14
    frequency:   14.0983457651
  - # 15
    frequency:   20.5646010528

- q-position: [    0.0000000,    0.1833333,    0.0000000 ]
  band:
  - # 1
    frequency:   -4.1585692062
  - # 2
    frequency:   -4.1585692062
  - # 3
    frequency:    1.9833399599
  - # 4
    frequency:    1.9833399599
  - # 5
    frequency:    2.7489147816
  - # 6
    frequency:    5.2916547979
  - # 7
    frequency:    5.2916547979
  - # 8
    frequency:    6.1382799056
  - # 9
    frequency:    9.4140144906
  - # 10
    frequency:    9.4333471373
  - # 11
    frequency:    9.4333471373
  - # 12
    frequency:   13.6996819724
  - # 13
    frequency:   13.6996819724
  - # 14
    frequency:   14.1937094532
  - # 15
    frequency:   20.3097634388

- q-position: [    0.0000000,    0.2000000,    0.0000000 ]
  band:
  - # 1
    frequency:   -4.1145023086
  - # 2
    frequency:   -4.1145023086
  - # 3
    frequency:    2.1299359914
  - # 4
    frequency:    2.1299359914
  - # 5
    frequency:    2.9388292030
  - # 6
    frequency:    5.3353060163
  - # 7
    frequency:    5.3353060163
  - # 8
    frequency:    6.3047926104
  - # 9
    frequency:    9.4402559777
  - # 10
    frequency:    9.4666632566
  - # 11
    frequency:    9.4666632566
  - # 12
    frequency:   13.6725212222
  - # 13
    frequency:   13.6725212222
  - # 14
    frequency:   14.2858680909
  - # 15
    frequency:   20.0461298850

- q-position: [    0.0000000,    0.2166667,    0.0000000 ]
  band:
  - # 1
    frequency:   -4.0706240964
  - # 2
    frequency:   -4.0706240964
  - # 3
    frequency:    2.2668711596
  - # 4
    frequency:    2.2668711596
  - # 5
    frequency:    3.1190995186
  - # 6
    frequency:    5.3831645032
  - # 7
    frequency:    5.3831645032
  - # 8
    frequency:    6.4690441259
  - # 9
    frequency:    9.4673300840
  - # 10
    frequency:    9.5023907674
  - # 11
    frequency:    9.5023907674
  - # 12
    frequency:   13.6436519962
  - # 13
    frequency:   13.6436519962
  - # 14
    frequency:   14.3722299487
  - # 15
    frequency:   19.7775450852

- q-position: [    0.0000000,    0.2333333,    0.0000000 ]
  band:
  - # 1
    frequency:   -4.0274206405
  - # 2
    frequency:   -4.0274206405
  - # 3
    frequency:    2.3935012582
  - # 4
    frequency:    2.3935012582
  - # 5
    frequency:    3.2898559246
  - # 6
    frequency:    5.4348946812
  - # 7
    frequency:    5.4348946812
  - # 8
    frequency:    6.6293848036
  - # 9
    frequency:    9.4949343476
  - # 10
    frequency:    9.5403287782
  - # 11
    frequency:    9.5403287782
  - # 12
    frequency:   13.6132730070
  - # 13
    frequency:   13.6132730070
  - # 14
    frequency:   14.4503407201
  - # 15
    frequency:   19.5079760091

- q-position: [    0.0000000,    0.2500000,    0.0000000 ]
  band:
  - # 1
    frequency:   -3.9853071915
  - # 2
    frequency:   -3.9853071915
  - # 3
    frequency:    2.5094053574
  - # 4
    frequency:    2.5094053574
  - # 5
    frequency:    3.4510977570
  - # 6
    frequency:    5.4899864636
  - # 7
    frequency:    5.4899864636
  - # 8
    frequency:    6.7845294436
  - # 9
    frequency:    9.5227630471
  - # 10
    frequency:    9.5802269119
  - # 11
    frequency:    9.5802269119
  - # 12
    frequency:   13.5816133192
  - # 13
    frequency:   13.5816133192
  - # 14
    frequency:   14.5179839239
  - # 15
    frequency:   19.2414236548

- q-position: [    0.0000000,    0.2666667,    0.0000000 ]
  band:
  - # 1
    frequency:   -3.9446351145
  - # 2
    frequency:   -3.9446351145
  - # 3
    frequency:    2.6144056228
  - # 4
    frequency:    2.6144056228
  - # 5
    frequency:    3.6027068310
  - # 6
    frequency:    5.5477560560
  - # 7
    frequency:    5.5477560560
  - # 8
    frequency:    6.9335022192
  - # 9
    frequency:    9.5505106584
  - # 10
    frequency:    9.6217781981
  - # 11
    frequency:    9.6217781981
  - # 12
    frequency:   13.5489354692
  - # 13
    frequency:   13.5489354692
  - # 14
    frequency:   14.5732922574
  - # 15
    frequency:   18.9818109627

- q-position: [    0.0000000,    0.2833333,    0.0000000 ]
  band:
  - # 1
    frequency:   -3.9057010406
  - # 2
    frequency:   -3.9057010406
  - # 3
    frequency:    2.7085654676
  - # 4
    frequency:    2.7085654676
  - # 5
    frequency:    3.7444742771
  - # 6
    frequency:    5.6073634746
  - # 7
    frequency:    5.6073634746
  - # 8
    frequency:    7.0755710133
  - # 9
    frequency:    9.5778751914
  - # 10
    frequency:    9.6646126449
  - # 11
    frequency:    9.6646126449
  - # 12
    frequency:   13.5155384289
  - # 13
    frequency:   13.5155384289
  - # 14
    frequency:   14.6148695348
  - # 15
    frequency:   18.7328458239

- q-position: [    0.0000000,    0.3000000,    0.0000000 ]
  band:
  - # 1
    frequency:   -3.8687566504
  - # 2
    frequency:   -3.8687566504
  - # 3
    frequency:    2.7921671376
  - # 4
    frequency:    2.7921671376
  - # 5
    frequency:    3.8761355467
  - # 6
    frequency:    5.6678454206
  - # 7
    frequency:    5.6678454206
  - # 8
    frequency:    7.2101781801
  - # 9
    frequency:    9.6045613735
  - # 10
    frequency:    9.7082921806
  - # 11
    frequency:    9.7082921806
  - # 12
    frequency:   13.4817601319
  - # 13
    frequency:   13.4817601319
  - # 14
    frequency:   14.6419180405
  - # 15
    frequency:   18.4978641056

- q-position: [    0.0000000,    0.3166667,    0.0000000 ]
  band:
  - # 1
    frequency:   -3.8340178990
  - # 2
    frequency:   -3.8340178990
  - # 3
    frequency:    2.8656732172
  - # 4
    frequency:    2.8656732172
  - # 5
    frequency:    3.9974089439
  - # 6
    frequency:    5.7281591685
  - # 7
    frequency:    5.7281591685
  - # 8
    frequency:    7.3368732016
  - # 9
    frequency:    9.6302836548
  - # 10
    frequency:    9.7523077674
  - # 11
    frequency:    9.7523077674
  - # 12
    frequency:   13.4479791823
  - # 13
    frequency:   13.4479791823
  - # 14
    frequency:   14.6543573635
  - # 15
    frequency:   18.2796675551

- q-position: [    0.0000000,    0.3333333,    0.0000000 ]
  band:
  - # 1
    frequency:   -3.8016729185
  - # 2
    frequency:   -3.8016729185
  - # 3
    frequency:    2.9296786342
  - # 4
    frequency:    2.9296786342
  - # 5
    frequency:    4.1080334570
  - # 6
    frequency:    5.7872312807
  - # 7
    frequency:    5.7872312807
  - # 8
    frequency:    7.4552517135
  - # 9
    frequency:    9.6547690148
  - # 10
    frequency:    9.7960795614
  - # 11
    frequency:    9.7960795614
  - # 12
    frequency:   13.4146152400
  - # 13
    frequency:   13.4146152400
  - # 14
    frequency:   14.6529098140
  - # 15
    frequency:   18.0803834270

- q-position: [    0.0000000,    0.3500000,    0.0000000 ]
  band:
  - # 1
    frequency:   -3.7718882195
  - # 2
    frequency:   -3.7718882195
  - # 3
    frequency:    2.9848600868
  - # 4
    frequency:    2.9848600868
  - # 5
    frequency:    4.2078019169
  - # 6
    frequency:    5.8440047457
  - # 7
    frequency:    5.8440047457
  - # 8
    frequency:    7.5649048200
  - # 9
    frequency:    9.6777595551
  - # 10
    frequency:    9.8389610108
  - # 11
    frequency:    9.8389610108
  - # 12
    frequency:   13.3821274658
  - # 13
    frequency:   13.3821274658
  - # 14
    frequency:   14.6391200575
  - # 15
    frequency:   17.9013809385

- q-position: [    0.0000000,    0.3666667,    0.0000000 ]
  band:
  - # 1
    frequency:   -3.7448131065
  - # 2
    frequency:   -3.7448131065
  - # 3
    frequency:    3.0319286458
  - # 4
    frequency:    3.0319286458
  - # 5
    frequency:    4.2965858802
  - # 6
    frequency:    5.8974793936
  - # 7
    frequency:    5.8974793936
  - # 8
    frequency:    7.6653821780
  - # 9
    frequency:    9.6990148703
  - # 10
    frequency:    9.8802477156
  - # 11
    frequency:    9.8802477156
  - # 12
    frequency:   13.3510103086
  - # 13
    frequency:   13.3510103086
  - # 14
    frequency:   14.6152807557
  - # 15
    frequency:   17.7432759957

- q-position: [    0.0000000,    0.3833333,    0.0000000 ]
  band:
  - # 1
    frequency:   -3.7205824261
  - # 2
    frequency:   -3.7205824261
  - # 3
    frequency:    3.0715892674
  - # 4
    frequency:    3.0715892674
  - # 5
    frequency:    4.3743493683
  - # 6
    frequency:    5.9467425246
  - # 7
    frequency:    5.9467425246
  - # 8
    frequency:    7.7561716303
  - # 9
    frequency:    9.7183141877
  - # 10
    frequency:    9.9191917069
  - # 11
    frequency:    9.9191917069
  - # 12
    frequency:   13.3217858974
  - # 13
    frequency:   13.3217858974
  - # 14
    frequency:   14.5842564208
  - # 15
    frequency:   17.6060354030

- q-position: [    0.0000000,    0.4000000,    0.0000000 ]
  band:
  - # 1
    frequency:   -3.6993178863
  - # 2
    frequency:   -3.6993178863
  - # 3
    frequency:    3.1045088439
  - # 4
    frequency:    3.1045088439
  - # 5
    frequency:    4.4411498326
  - # 6
    frequency:    5.9909888682
  - # 7
    frequency:    5.9909888682
  - # 8
    frequency:    7.8366969462
  - # 9
    frequency:    9.7354582766
  - # 10
    frequency:    9.9550215025
  - # 11
    frequency:    9.9550215025
  - # 12
    frequency:   13.2949923899
  - # 13
    frequency:   13.2949923899
  - # 14
    frequency:   14.5492285892
  - # 15
    frequency:   17.4891607584

- q-position: [    0.0000000,    0.4166667,    0.0000000 ]
  band:
  - # 1
    frequency:   -3.6811282489
  - # 2
    frequency:   -3.6811282489
  - # 3
    frequency:    3.1312927352
  - # 4
    frequency:    3.1312927352
  - # 5
    frequency:    4.4971263686
  - # 6
    frequency:    6.0295307369
  - # 7
    frequency:    6.0295307369
  - # 8
    frequency:    7.9063334251
  - # 9
    frequency:    9.7502711235
  - # 10
    frequency:    9.9869678323
  - # 11
    frequency:    9.9869678323
  - # 12
    frequency:   13.2711679106
  - # 13
    frequency:   13.2711679106
  - # 14
    frequency:   14.5134112763
  - # 15
    frequency:   17.3919060393

- q-position: [    0.0000000,    0.4333333,    0.0000000 ]
  band:
  - # 1
    frequency:   -3.6661087128
  - # 2
    frequency:   -3.6661087128
  - # 3
    frequency:    3.1524686750
  - # 4
    frequency:    3.1524686750
  - # 5
    frequency:    4.5424770029
  - # 6
    frequency:    6.0618003334
  - # 7
    frequency:    6.0618003334
  - # 8
    frequency:    7.9644389742
  - # 9
    frequency:    9.7626013767
  - # 10
    frequency:   10.0142942860
  - # 11
    frequency:   10.0142942860
  - # 12
    frequency:   13.2508302144
  - # 13
    frequency:   13.2508302144
  - # 14
    frequency:   14.4797919796
  - # 15
    frequency:   17.3134760626

- q-position: [    0.0000000,    0.4500000,    0.0000000 ]
  band:
  - # 1
    frequency:   -3.6543397966
  - # 2
    frequency:   -3.6543397966
  - # 3
    frequency:    3.1684764774
  - # 4
    frequency:    3.1684764774
  - # 5
    frequency:    4.5774284402
  - # 6
    frequency:    6.0873466363
  - # 7
    frequency:    6.0873466363
  - # 8
    frequency:    8.0103961900
  - # 9
    frequency:    9.7723235611
  - # 10
    frequency:   10.0363313244
  - # 11
    frequency:   10.0363313244
  - # 12
    frequency:   13.2344529434
  - # 13
    frequency:   13.2344529434
  - # 14
    frequency:   14.4509381064
  - # 15
    frequency:   17.2531677755

- q-position: [    0.0000000,    0.4666667,    0.0000000 ]
  band:
  - # 1
    frequency:   -3.6458860054
  - # 2
    frequency:   -3.6458860054
  - # 3
    frequency:    3.1796619382
  - # 4
    frequency:    3.1796619382
  - # 5
    frequency:    4.6022026617
  - # 6
    frequency:    6.1058292842
  - # 7
    frequency:    6.1058292842
  - # 8
    frequency:    8.0436594449
  - # 9
    frequency:    9.7793390667
  - # 10
    frequency:   10.0525112264
  - # 11
    frequency:   10.0525112264
  - # 12
    frequency:   13.2224402097
  - # 13
    frequency:   13.2224402097
  - # 14
    frequency:   14.4288820513
  - # 15
    frequency:   17.2104423095

- q-position: [    0.0000000,    0.4833333,    0.0000000 ]
  band:
  - # 1
    frequency:   -3.6407945242
  - # 2
    frequency:   -3.6407945242
  - # 3
    frequency:    3.1862735226
  - # 4
    frequency:    3.1862735226
  - # 5
    frequency:    4.6169850397
  - # 6
    frequency:    6.1170115830
  - # 7
    frequency:    6.1170115830
  - # 8
    frequency:    8.0638003492
  - # 9
    frequency:    9.7835769138
  - # 10
    frequency:   10.0624007861
  - # 11
    frequency:   10.0624007861
  - # 12
    frequency:   13.2151020465
  - # 13
    frequency:   13.2151020465
  - # 14
    frequency:   14.4150737728
  - # 15
    frequency:   17.1849394527

- q-position: [    0.0000000,    0.5000000,    0.0000000 ]
  band:
  - # 1
    frequency:   -3.6390941382
  - # 2
    frequency:   -3.6390941382
  - # 3
    frequency:    3.1884607510
  - # 4
    frequency:    3.1884607510
  - # 5
    frequency:    4.6218982147
  - # 6
    frequency:    6.1207543204
  - # 7
    frequency:    6.1207543204
  - # 8
    frequency:    8.0705453353
  - # 9
    frequency:    9.7849942977
  - # 10
    frequency:   10.0657281960
  - # 11
    frequency:   10.0657281960
  - # 12
    frequency:   13.2126337509
  - # 13
    frequency:   13.2126337509
  - # 14
    frequency:   14.4103758268
  - # 15
    frequency:   17.1764595361

- q-position: [    0.0166667,    0.5000000,    0.0000000 ]
  band:
  - # 1
    frequency:   -3.6365450421
  - # 2
    frequency:   -3.6184330252
  - # 3
    frequency:    3.1871278701
  - # 4
    frequency:    3.1884946303
  - # 5
    frequency:    4.6266436835
  - # 6
    frequency:    6.1241405593
  - # 7
    frequency:    6.1298842525
  - # 8
    frequency:    8.0681030779
  - # 9
    frequency:    9.7320791921
  - # 10
    frequency:   10.0661931642
  - # 11
    frequency:   10.1142539102
  - # 12
    frequency:   13.2033377835
  - # 13
    frequency:   13.2100379910
  - # 14
    frequency:   14.4192487987
  - # 15
    frequency:   17.2027562722

- q-position: [    0.0333333,    0.5000000,    0.0000000 ]
  band:
  - # 1
    frequency:   -3.6289592373
  - # 2
    frequency:   -3.5545091923
  - # 3
    frequency:    3.1834047760
  - # 4
    frequency:    3.1885957468
  - # 5
    frequency:    4.6408294051
  - # 6
    frequency:    6.1347400118
  - # 7
    frequency:    6.1571762695
  - # 8
    frequency:    8.0600598087
  - # 9
    frequency:    9.6230173739
  - # 10
    frequency:   10.0675828936
  - # 11
    frequency:   10.2111353856
  - # 12
    frequency:   13.1767490195
  - # 13
    frequency:   13.2022495759
  - # 14
    frequency:   14.4445999549
  - # 15
    frequency:   17.2804184766

- q-position: [    0.0500000,    0.5000000,    0.0000000 ]
  band:
  - # 1
    frequency:   -3.6165178602
  - # 2
    frequency:   -3.4414865504
  - # 3
    frequency:    3.1780430570
  - # 4
    frequency:    3.1887625498
  - # 5
    frequency:    4.6644582412
  - # 6
    frequency:    6.1537578831
  - # 7
    frequency:    6.2023391626
  - # 8
    frequency:    8.0443117705
  - # 9
    frequency:    9.4986564707
  - # 10
    frequency:   10.0698819177
  - # 11
    frequency:   10.3184127032
  - # 12
    frequency:   13.1361380138
  - # 13
    frequency:   13.1892651314
  - # 14
    frequency:   14.4832124933
  - # 15
    frequency:   17.4059535868

- q-position: [    0.0666667,    0.5000000,    0.0000000 ]
  band:
  - # 1
    frequency:   -3.5995120625
  - # 2
    frequency:   -3.2694819879
  - # 3
    frequency:    3.1720799254
  - # 4
    frequency:    3.1889924964
  - # 5
    frequency:    4.6980255837
  - # 6
    frequency:    6.1828547343
  - # 7
    frequency:    6.2648946829
  - # 8
    frequency:    8.0175292551
  - # 9
    frequency:    9.3724672344
  - # 10
    frequency:   10.0730646597
  - # 11
    frequency:   10.4271579404
  - # 12
    frequency:   13.0854260497
  - # 13
    frequency:   13.1710791426
  - # 14
    frequency:   14.5311378770
  - # 15
    frequency:   17.5741212285

- q-position: [    0.0833333,    0.5000000,    0.0000000 ]
  band:
  - # 1
    frequency:   -3.5783279331
  - # 2
    frequency:   -3.0238765994
  - # 3
    frequency:    3.1666137821
  - # 4
    frequency:    3.1892821131
  - # 5
    frequency:    4.7431834326
  - # 6
    frequency:    6.2237527027
  - # 7
    frequency:    6.3441881706
  - # 8
    frequency:    7.9755303638
  - # 9
    frequency:    9.2519036600
  - # 10
    frequency:   10.0770957285
  - # 11
    frequency:   10.5356229304
  - # 12
    frequency:   13.0281140640
  - # 13
    frequency:   13.1476841254
  - # 14
    frequency:   14.5846487404
  - # 15
    frequency:   17.7786257719

- q-position: [    0.1000000,    0.5000000,    0.0000000 ]
  band:
  - # 1
    frequency:   -3.5534273391
  - # 2
    frequency:   -2.6829532625
  - # 3
    frequency:    3.1626264922
  - # 4
    frequency:    3.1896270785
  - # 5
    frequency:    4.8035716368
  - # 6
    frequency:    6.2778859445
  - # 7
    frequency:    6.4394033002
  - # 8
    frequency:    7.9140418360
  - # 9
    frequency:    9.1428557042
  - # 10
    frequency:   10.0819303299
  - # 11
    frequency:   10.6438977697
  - # 12
    frequency:   12.9668413852
  - # 13
    frequency:   13.1190708819
  - # 14
    frequency:   14.6406051307
  - # 15
    frequency:   18.0128064237

- q-position: [    0.1166667,    0.5000000,    0.0000000 ]
  band:
  - # 1
    frequency:   -3.5253263695
  - # 2
    frequency:   -2.2096838215
  - # 3
    frequency:    3.1608996052
  - # 4
    frequency:    3.1900223233
  - # 5
    frequency:    4.8857524060
  - # 6
    frequency:    6.3461988633
  - # 7
    frequency:    6.5495806330
  - # 8
    frequency:    7.8299089572
  - # 9
    frequency:    9.0496534571
  - # 10
    frequency:   10.0875147842
  - # 11
    frequency:   10.7525849847
  - # 12
    frequency:   12.9034199497
  - # 13
    frequency:   13.0852288558
  - # 14
    frequency:   14.6964254474
  - # 15
    frequency:   18.2701890591

- q-position: [    0.1333333,    0.5000000,    0.0000000 ]
  band:
  - # 1
    frequency:   -3.4945731839
  - # 2
    frequency:   -1.5124148131
  - # 3
    frequency:    3.1620357431
  - # 4
    frequency:    3.1904621455
  - # 5
    frequency:    5.0000203817
  - # 6
    frequency:    6.4291440075
  - # 7
    frequency:    6.6736393928
  - # 8
    frequency:    7.7223291352
  - # 9
    frequency:    8.9741960939
  - # 10
    frequency:   10.0937871453
  - # 11
    frequency:   10.8623645896
  - # 12
    frequency:   12.8390769249
  - # 13
    frequency:   13.0461466132
  - # 14
    frequency:   14.7499298851
  - # 15
    frequency:   18.5448423988

- q-position: [    0.1500000,    0.5000000,    0.0000000 ]
  band:
  - # 1
    frequency:   -3.4617269710
  - # 2
    frequency:    0.6480476807
  - # 3
    frequency:    3.1665771805
  - # 4
    frequency:    3.1909403352
  - # 5
    frequency:    5.1602180759
  - # 6
    frequency:    6.5268916185
  - # 7
    frequency:    6.8104016002
  - # 8
    frequency:    7.5932900616
  - # 9
    frequency:    8.9156748066
  - # 10
    frequency:   10.1006779130
  - # 11
    frequency:   10.9738275957
  - # 12
    frequency:   12.7747321518
  - # 13
    frequency:   13.0018124770
  - # 14
    frequency:   14.7992043795
  - # 15
    frequency:   18.8315485885

- q-position: [    0.1666667,    0.5000000,    0.0000000 ]
  band:
  - # 1
    frequency:   -3.4273394276
  - # 2
    frequency:    1.7324583957
  - # 3
    frequency:    3.1752088502
  - # 4
    frequency:    3.1914503059
  - # 5
    frequency:    5.3804371103
  - # 6
    frequency:    6.6397850614
  - # 7
    frequency:    6.9586174469
  - # 8
    frequency:    7.4469666192
  - # 9
    frequency:    8.8713656434
  - # 10
    frequency:   10.1081108276
  - # 11
    frequency:   11.0874137760
  - # 12
    frequency:   12.7112374503
  - # 13
    frequency:   12.9522153595
  - # 14
    frequency:   14.8425263628
  - # 15
    frequency:   19.1258326891

- q-position: [    0.1833333,    0.5000000,    0.0000000 ]
  band:
  - # 1
    frequency:   -3.3919397306
  - # 2
    frequency:    2.2822405658
  - # 3
    frequency:    3.1890008666
  - # 4
    frequency:    3.1919852261
  - # 5
    frequency:    5.6664161677
  - # 6
    frequency:    6.7692228637
  - # 7
    frequency:    7.1169906521
  - # 8
    frequency:    7.2890018000
  - # 9
    frequency:    8.8378768684
  - # 10
    frequency:   10.1160037396
  - # 11
    frequency:   11.2033971422
  - # 12
    frequency:   12.6495620183
  - # 13
    frequency:   12.8973458488
  - # 14
    frequency:   14.8783442709
  - # 15
    frequency:   19.4239018581

- q-position: [    0.2000000,    0.5000000,    0.0000000 ]
  band:
  - # 1
    frequency:   -3.3560234794
  - # 2
    frequency:    2.6232322265
  - # 3
    frequency:    3.1925381494
  - # 4
    frequency:    3.2094165662
  - # 5
    frequency:    6.0036582547
  - # 6
    frequency:    6.9190595764
  - # 7
    frequency:    7.1281454706
  - # 8
    frequency:    7.2842025303
  - # 9
    frequency:    8.8120717502
  - # 10
    frequency:   10.1242695402
  - # 11
    frequency:   11.3218964015
  - # 12
    frequency:   12.5909319315
  - # 13
    frequency:   12.8371976266
  - # 14
    frequency:   14.9052903489
  - # 15
    frequency:   19.7225371008

- q-position: [    0.2166667,    0.5000000,    0.0000000 ]
  band:
  - # 1
    frequency:   -3.3200456125
  - # 2
    frequency:    2.8289843174
  - # 3
    frequency:    3.1931021373
  - # 4
    frequency:    3.2370853987
  - # 5
    frequency:    6.3427571526
  - # 6
    frequency:    6.9718992189
  - # 7
    frequency:    7.1144261085
  - # 8
    frequency:    7.4589336208
  - # 9
    frequency:    8.7914566499
  - # 10
    frequency:   10.1328171440
  - # 11
    frequency:   11.4429016316
  - # 12
    frequency:   12.5369377879
  - # 13
    frequency:   12.7717693271
  - # 14
    frequency:   14.9222086774
  - # 15
    frequency:   20.0189690160

- q-position: [    0.2333333,    0.5000000,    0.0000000 ]
  band:
  - # 1
    frequency:   -3.2844169179
  - # 2
    frequency:    2.9457968524
  - # 3
    frequency:    3.1936703719
  - # 4
    frequency:    3.2686383400
  - # 5
    frequency:    6.5396211093
  - # 6
    frequency:    6.9313222826
  - # 7
    frequency:    7.3651831948
  - # 8
    frequency:    7.6398819352
  - # 9
    frequency:    8.7742195461
  - # 10
    frequency:   10.1415525093
  - # 11
    frequency:   11.5663157500
  - # 12
    frequency:   12.4896213028
  - # 13
    frequency:   12.7010669912
  - # 14
    frequency:   14.9281860232
  - # 15
    frequency:   20.3107587488

- q-position: [    0.2500000,    0.5000000,    0.0000000 ]
  band:
  - # 1
    frequency:   -3.2495035057
  - # 2