40
3

   1
    0.01000000000000     0.00000000000000     0.00000000000000
    -0.08221588276179    -0.00000000000003    -0.00000000000003
     0.02275461522003    -0.00000000000003    -0.00000000000002
    -0.00682647002067    -0.00000000000000    -0.00000000000002
     0.00633009504290    -0.00000000000001    -0.00000000000003
    -0.00682647002067    -0.00000000000003     0.00000000000000
     0.00633009504291    -0.00000000000003    -0.00000000000000
    -0.00216201696831    -0.00000000000000    -0.00000000000000
     0.00216523281357     0.00000000000001     0.00000000000001
     0.00392578565715     0.01196753352878     0.01196753352878
     0.00401153620291    -0.01189814892399    -0.01189814892399
     0.00392578565715    -0.01196753352858     0.01196753352878
     0.00401153620292     0.01189814892419    -0.01189814892399
     0.00392578565714     0.01196753352877    -0.01196753352859
     0.00401153620292    -0.01189814892398     0.01189814892419
     0.00392578565715    -0.01196753352857    -0.01196753352857
     0.00401153620292     0.01189814892420     0.01189814892420
     0.00243345465628    -0.00070971809392    -0.00000000000013
     0.00219567462896     0.00091859254721    -0.00000000000013
     0.00243345465628     0.00070971809392    -0.00000000000013
     0.00219567462896    -0.00091859254722    -0.00000000000013
     0.00019429143473    -0.00147026479986    -0.00000000000003
     0.00017614424406     0.00145436839836    -0.00000000000004
     0.00019429143473     0.00147026479985    -0.00000000000004
     0.00017614424406    -0.00145436839837    -0.00000000000004
     0.00243345465628    -0.00000000000013    -0.00070971809392
     0.00219567462896    -0.00000000000013     0.00091859254721
     0.00019429143473    -0.00000000000004    -0.00147026479985
     0.00017614424406    -0.00000000000004     0.00145436839836
     0.00243345465628    -0.00000000000013     0.00070971809392
     0.00219567462896    -0.00000000000013    -0.00091859254722
     0.00019429143473    -0.00000000000004     0.00147026479985
     0.00017614424406    -0.00000000000004    -0.00145436839837
     0.00851371842751     0.00001347250145     0.00001347250145
    -0.00633790483860    -0.00000749610512    -0.00000749610512
     0.00851371842751    -0.00001347250145     0.00001347250145
    -0.00633790483860     0.00000749610512    -0.00000749610512
     0.00851371842751     0.00001347250145    -0.00001347250146
    -0.00633790483860    -0.00000749610512     0.00000749610511
     0.00851371842751    -0.00001347250146    -0.00001347250145
    -0.00633790483860     0.00000749610512     0.00000749610512

   9
    0.01000000000000     0.00000000000000     0.00000000000000
     0.00395570067614     0.01189786379031     0.01189786379031
     0.00381586417987    -0.01200937086036    -0.01200937086035
     0.00395570067614    -0.01189786379034     0.01189786379031
     0.00381586417987     0.01200937086032    -0.01200937086036
     0.00395570067613     0.01189786379031    -0.01189786379034
     0.00381586417987    -0.01200937086036     0.01200937086033
     0.00395570067614    -0.01189786379034    -0.01189786379034
     0.00381586417988     0.01200937086034     0.01200937086034
    -0.14162968437764     0.00000000000007     0.00000000000007
     0.12402502402051     0.00000000000007     0.00000000000007
    -0.00119852297096     0.00000000000014     0.00000000000007
     0.00494958594173     0.00000000000015     0.00000000000007
    -0.00119852297096     0.00000000000006     0.00000000000013
     0.00494958594173     0.00000000000007     0.00000000000015
    -0.00342676493092     0.00000000000015     0.00000000000015
     0.00332735413314     0.00000000000015     0.00000000000015
     0.01566426972750    -0.00000000000001    -0.00009593563839
    -0.01170496018133    -0.00000000000000     0.00014249054211
     0.00161766852094     0.00000000000000    -0.00006793034979
    -0.00200487334423     0.00000000000000     0.00001368282261
     0.01566426972750    -0.00000000000001     0.00009593563822
    -0.01170496018133    -0.00000000000001    -0.00014249054229
     0.00161766852094    -0.00000000000000     0.00006793034961
    -0.00200487334423    -0.00000000000000    -0.00001368282279
     0.01566426972750    -0.00009593563839    -0.00000000000000
    -0.01170496018133     0.00014249054211    -0.00000000000001
     0.01566426972750     0.00009593563821    -0.00000000000001
    -0.01170496018133    -0.00014249054229    -0.00000000000001
     0.00161766852094    -0.00006793034978     0.00000000000000
    -0.00200487334422     0.00001368282261     0.00000000000000
     0.00161766852094     0.00006793034961    -0.00000000000000
    -0.00200487334423    -0.00001368282279    -0.00000000000000
    -0.02245862608850    -0.00000000000000    -0.00000000000000
    -0.01843531083001    -0.00000000000000    -0.00000000000001
     0.00131870862348     0.00000000000000    -0.00000000000001
     0.00153451245373    -0.00000000000000    -0.00000000000001
     0.00131870862349    -0.00000000000000     0.00000000000000
     0.00153451245373    -0.00000000000001    -0.00000000000000
    -0.00001999028572    -0.00000000000000     0.00000000000000
     0.00003475194760    -0.00000000000000    -0.00000000000000

  17
    0.00707106781187     0.00000000000000     0.00707106781187
     0.00154405621864    -0.00068882489946     0.00607323767314
     0.00171940491523     0.00051071031393     0.00608468079601
     0.00154405621863     0.00068882489943     0.00607323767315
     0.00171940491522    -0.00051071031396     0.00608468079601
     0.00012877757587    -0.00103414415944    -0.00441947746338
     0.00011868029346     0.00106422560472    -0.00443823536195
     0.00012877757588     0.00103414415941    -0.00441947746338
     0.00011868029347    -0.00106422560474    -0.00443823536193
     0.01105137631768     0.00000000000007    -0.01309107362872
    -0.00832303404703     0.00000000000007     0.00104172896096
     0.00110995672120     0.00000000000014     0.00103461070835
    -0.00139357949173     0.00000000000015     0.00002086465342
     0.01105252916721     0.00000000000006    -0.01505417399405
    -0.00815760953388     0.00000000000007     0.00098885563450
     0.00112144013713     0.00000000000015     0.00099567267260
    -0.00139562082892     0.00000000000015    -0.00000626293982
    -0.04681930726632    -0.00000000000000    -0.09299360277359
     0.00093961074283    -0.00000000000000    -0.00566970069979
    -0.00122571061572     0.00000000000000    -0.00566951925858
     0.00196475703292     0.00000000000000    -0.00138282941447
    -0.00060524079693    -0.00000000000001     0.04313324192293
     0.00300615740825    -0.00000000000001     0.00675499790679
    -0.00031695042163    -0.00000000000000     0.00675466818769
     0.00038807259890    -0.00000000000000     0.00142815267841
    -0.00162865332889    -0.02011249975815     0.00830503775390
     0.00111365616336    -0.00235045539532    -0.00018211141622
    -0.00162865332889     0.02011249975797     0.00830503775390
     0.00111365616336     0.00235045539514    -0.00018211141622
    -0.00158154715085     0.01992570278650     0.00831545823427
     0.00110640008713     0.00232171837890    -0.00016103012687
    -0.00158154715085    -0.01992570278668     0.00831545823427
     0.00110640008713    -0.00232171837907    -0.00016103012688
    -0.01168460479438    -0.00000000000000    -0.00015472287768
     0.02863245597509    -0.00000000000000     0.01686509279141
    -0.00251434788179     0.00000000000000    -0.00077494292753
     0.00216869286166    -0.00000000000000     0.00041549028862
     0.02803206295524    -0.00000000000000     0.01649338691626
    -0.01173208428411    -0.00000000000001     0.00004170533117
     0.00216013147478    -0.00000000000000     0.00043319265541
    -0.00250070297834    -0.00000000000000    -0.00075995297213
