phonopy:
  version: 1.11.12
  nac_unit_conversion_factor: 14.399652
  configuration:
    dim: "2 2 2"
    atom_name: "Ba Ti O"
    qpoints: ".TRUE."
    nac: ".true."
    band: "0.0 0.0 0.0  0.0 0.5 0.0  0.5 0.5 0.0  0.0 0.0 0.0  0.5 0.5 0.5  0.5 0.5 0.0"

supercell_matrix:
- [   2,   0,   0 ]
- [   0,   2,   0 ]
- [   0,   0,   2 ]

primitive_cell:
  lattice:
  - [     3.971381122210000,     0.000000000000000,     0.000000000000000 ] # a
  - [     0.000000000000000,     3.971381122210000,     0.000000000000000 ] # b
  - [     0.000000000000000,     0.000000000000000,     3.971381122210000 ] # c
  points:
  - symbol: Ba # 1
    coordinates: [  0.000000000000000,  0.000000000000000,  0.000000000000000 ]
    mass: 137.327000
  - symbol: Ti # 2
    coordinates: [  0.500000000000000,  0.500000000000000,  0.500000000000000 ]
    mass: 47.867000
  - symbol: O  # 3
    coordinates: [  0.500000000000000,  0.500000000000000,  0.000000000000000 ]
    mass: 15.999400
  - symbol: O  # 4
    coordinates: [  0.500000000000000,  0.000000000000000,  0.500000000000000 ]
    mass: 15.999400
  - symbol: O  # 5
    coordinates: [  0.000000000000000,  0.500000000000000,  0.500000000000000 ]
    mass: 15.999400
  reciprocal_lattice: # without 2pi
  - [     0.251801569586834,     0.000000000000000,     0.000000000000000 ] # a*
  - [     0.000000000000000,     0.251801569586834,     0.000000000000000 ] # b*
  - [     0.000000000000000,     0.000000000000000,     0.251801569586834 ] # c*

unit_cell:
  lattice:
  - [     3.971381122210000,     0.000000000000000,     0.000000000000000 ] # a
  - [     0.000000000000000,     3.971381122210000,     0.000000000000000 ] # b
  - [     0.000000000000000,     0.000000000000000,     3.971381122210000 ] # c
  points:
  - symbol: Ba # 1
    coordinates: [  0.000000000000000,  0.000000000000000,  0.000000000000000 ]
    mass: 137.327000
    reduced_to: 1
  - symbol: Ti # 2
    coordinates: [  0.500000000000000,  0.500000000000000,  0.500000000000000 ]
    mass: 47.867000
    reduced_to: 2
  - symbol: O  # 3
    coordinates: [  0.500000000000000,  0.500000000000000,  0.000000000000000 ]
    mass: 15.999400
    reduced_to: 3
  - symbol: O  # 4
    coordinates: [  0.500000000000000,  0.000000000000000,  0.500000000000000 ]
    mass: 15.999400
    reduced_to: 4
  - symbol: O  # 5
    coordinates: [  0.000000000000000,  0.500000000000000,  0.500000000000000 ]
    mass: 15.999400
    reduced_to: 5

supercell:
  lattice:
  - [     7.942762244420000,     0.000000000000000,     0.000000000000000 ] # a
  - [     0.000000000000000,     7.942762244420000,     0.000000000000000 ] # b
  - [     0.000000000000000,     0.000000000000000,     7.942762244420000 ] # c
  points:
  - symbol: Ba # 1
    coordinates: [  0.000000000000000,  0.000000000000000,  0.000000000000000 ]
    mass: 137.327000
    reduced_to: 1
  - symbol: Ba # 2
    coordinates: [  0.500000000000000,  0.000000000000000,  0.000000000000000 ]
    mass: 137.327000
    reduced_to: 1
  - symbol: Ba # 3
    coordinates: [  0.000000000000000,  0.500000000000000,  0.000000000000000 ]
    mass: 137.327000
    reduced_to: 1
  - symbol: Ba # 4
    coordinates: [  0.500000000000000,  0.500000000000000,  0.000000000000000 ]
    mass: 137.327000
    reduced_to: 1
  - symbol: Ba # 5
    coordinates: [  0.000000000000000,  0.000000000000000,  0.500000000000000 ]
    mass: 137.327000
    reduced_to: 1
  - symbol: Ba # 6
    coordinates: [  0.500000000000000,  0.000000000000000,  0.500000000000000 ]
    mass: 137.327000
    reduced_to: 1
  - symbol: Ba # 7
    coordinates: [  0.000000000000000,  0.500000000000000,  0.500000000000000 ]
    mass: 137.327000
    reduced_to: 1
  - symbol: Ba # 8
    coordinates: [  0.500000000000000,  0.500000000000000,  0.500000000000000 ]
    mass: 137.327000
    reduced_to: 1
  - symbol: Ti # 9
    coordinates: [  0.250000000000000,  0.250000000000000,  0.250000000000000 ]
    mass: 47.867000
    reduced_to: 9
  - symbol: Ti # 10
    coordinates: [  0.750000000000000,  0.250000000000000,  0.250000000000000 ]
    mass: 47.867000
    reduced_to: 9
  - symbol: Ti # 11
    coordinates: [  0.250000000000000,  0.750000000000000,  0.250000000000000 ]
    mass: 47.867000
    reduced_to: 9
  - symbol: Ti # 12
    coordinates: [  0.750000000000000,  0.750000000000000,  0.250000000000000 ]
    mass: 47.867000
    reduced_to: 9
  - symbol: Ti # 13
    coordinates: [  0.250000000000000,  0.250000000000000,  0.750000000000000 ]
    mass: 47.867000
    reduced_to: 9
  - symbol: Ti # 14
    coordinates: [  0.750000000000000,  0.250000000000000,  0.750000000000000 ]
    mass: 47.867000
    reduced_to: 9
  - symbol: Ti # 15
    coordinates: [  0.250000000000000,  0.750000000000000,  0.750000000000000 ]
    mass: 47.867000
    reduced_to: 9
  - symbol: Ti # 16
    coordinates: [  0.750000000000000,  0.750000000000000,  0.750000000000000 ]
    mass: 47.867000
    reduced_to: 9
  - symbol: O  # 17
    coordinates: [  0.250000000000000,  0.250000000000000,  0.000000000000000 ]
    mass: 15.999400
    reduced_to: 17
  - symbol: O  # 18
    coordinates: [  0.750000000000000,  0.250000000000000,  0.000000000000000 ]
    mass: 15.999400
    reduced_to: 17
  - symbol: O  # 19
    coordinates: [  0.250000000000000,  0.750000000000000,  0.000000000000000 ]
    mass: 15.999400
    reduced_to: 17
  - symbol: O  # 20
    coordinates: [  0.750000000000000,  0.750000000000000,  0.000000000000000 ]
    mass: 15.999400
    reduced_to: 17
  - symbol: O  # 21
    coordinates: [  0.250000000000000,  0.250000000000000,  0.500000000000000 ]
    mass: 15.999400
    reduced_to: 17
  - symbol: O  # 22
    coordinates: [  0.750000000000000,  0.250000000000000,  0.500000000000000 ]
    mass: 15.999400
    reduced_to: 17
  - symbol: O  # 23
    coordinates: [  0.250000000000000,  0.750000000000000,  0.500000000000000 ]
    mass: 15.999400
    reduced_to: 17
  - symbol: O  # 24
    coordinates: [  0.750000000000000,  0.750000000000000,  0.500000000000000 ]
    mass: 15.999400
    reduced_to: 17
  - symbol: O  # 25
    coordinates: [  0.250000000000000,  0.000000000000000,  0.250000000000000 ]
    mass: 15.999400
    reduced_to: 25
  - symbol: O  # 26
    coordinates: [  0.750000000000000,  0.000000000000000,  0.250000000000000 ]
    mass: 15.999400
    reduced_to: 25
  - symbol: O  # 27
    coordinates: [  0.250000000000000,  0.500000000000000,  0.250000000000000 ]
    mass: 15.999400
    reduced_to: 25
  - symbol: O  # 28
    coordinates: [  0.750000000000000,  0.500000000000000,  0.250000000000000 ]
    mass: 15.999400
    reduced_to: 25
  - symbol: O  # 29
    coordinates: [  0.250000000000000,  0.000000000000000,  0.750000000000000 ]
    mass: 15.999400
    reduced_to: 25
  - symbol: O  # 30
    coordinates: [  0.750000000000000,  0.000000000000000,  0.750000000000000 ]
    mass: 15.999400
    reduced_to: 25
  - symbol: O  # 31
    coordinates: [  0.250000000000000,  0.500000000000000,  0.750000000000000 ]
    mass: 15.999400
    reduced_to: 25
  - symbol: O  # 32
    coordinates: [  0.750000000000000,  0.500000000000000,  0.750000000000000 ]
    mass: 15.999400
    reduced_to: 25
  - symbol: O  # 33
    coordinates: [  0.000000000000000,  0.250000000000000,  0.250000000000000 ]
    mass: 15.999400
    reduced_to: 33
  - symbol: O  # 34
    coordinates: [  0.500000000000000,  0.250000000000000,  0.250000000000000 ]
    mass: 15.999400
    reduced_to: 33
  - symbol: O  # 35
    coordinates: [  0.000000000000000,  0.750000000000000,  0.250000000000000 ]
    mass: 15.999400
    reduced_to: 33
  - symbol: O  # 36
    coordinates: [  0.500000000000000,  0.750000000000000,  0.250000000000000 ]
    mass: 15.999400
    reduced_to: 33
  - symbol: O  # 37
    coordinates: [  0.000000000000000,  0.250000000000000,  0.750000000000000 ]
    mass: 15.999400
    reduced_to: 33
  - symbol: O  # 38
    coordinates: [  0.500000000000000,  0.250000000000000,  0.750000000000000 ]
    mass: 15.999400
    reduced_to: 33
  - symbol: O  # 39
    coordinates: [  0.000000000000000,  0.750000000000000,  0.750000000000000 ]
    mass: 15.999400
    reduced_to: 33
  - symbol: O  # 40
    coordinates: [  0.500000000000000,  0.750000000000000,  0.750000000000000 ]
    mass: 15.999400
    reduced_to: 33

born_effective_charge:
- # 1 (Ba)
  - [  1.580212010000000,  0.000000000000000,  0.000000000000000 ]
  - [  0.000000000000000,  1.580212010000000,  0.000000000000000 ]
  - [  0.000000000000000,  0.000000000000000,  1.580212010000000 ]
- # 2 (Ti)
  - [  4.189033400000000,  0.000000000000000,  0.000000000000000 ]
  - [  0.000000000000000,  4.189033400000000,  0.000000000000000 ]
  - [  0.000000000000000,  0.000000000000000,  4.189033400000000 ]
- # 3 (O)
  - [ -1.040892320000000,  0.000000000000000,  0.000000000000000 ]
  - [  0.000000000000000, -1.040892320000000,  0.000000000000000 ]
  - [  0.000000000000000,  0.000000000000000, -3.687460855600000 ]
- # 4 (O)
  - [ -1.040892320000000,  0.000000000000000,  0.000000000000000 ]
  - [  0.000000000000000, -3.687460855600000,  0.000000000000000 ]
  - [  0.000000000000000,  0.000000000000000, -1.040892320000000 ]
- # 5 (O)
  - [ -3.687460855600000,  0.000000000000000,  0.000000000000000 ]
  - [  0.000000000000000, -1.040892320000000,  0.000000000000000 ]
  - [  0.000000000000000,  0.000000000000000, -1.040892320000000 ]

dielectric_constant:
  - [  3.124646526700000,  0.000000000000000,  0.000000000000000 ]
  - [  0.000000000000000,  3.124646526800000,  0.000000000000000 ]
  - [  0.000000000000000,  0.000000000000000,  3.124646527500000 ]
