nqpoint: 151    
natom:   5      
reciprocal_lattice:
- [   0.25180157,   0.00000000,   0.00000000 ] # a*
- [   0.00000000,   0.25180157,   0.00000000 ] # b*
- [   0.00000000,   0.00000000,   0.25180157 ] # c*
phonon:
- q-position: [    0.0000000,    0.0000000,    0.0000000 ]
  band:
  - # 1
    frequency:   -3.7469640128
  - # 2
    frequency:   -3.7469640128
  - # 3
    frequency:   -3.7469640128
  - # 4
    frequency:    0.0888210590
  - # 5
    frequency:    0.0888210590
  - # 6
    frequency:    0.0888210590
  - # 7
    frequency:    5.1121457177
  - # 8
    frequency:    5.1121457177
  - # 9
    frequency:    5.1121457177
  - # 10
    frequency:    9.3754316308
  - # 11
    frequency:    9.3754316308
  - # 12
    frequency:    9.3754316308
  - # 13
    frequency:   14.2564429939
  - # 14
    frequency:   14.2564429939
  - # 15
    frequency:   14.2564429939

- q-position: [    0.0000000,    0.0166667,    0.0000000 ]
  band:
  - # 1
    frequency:   -3.7429333848
  - # 2
    frequency:   -3.7429333848
  - # 3
    frequency:    0.2130201103
  - # 4
    frequency:    0.2130201103
  - # 5
    frequency:    0.3033724185
  - # 6
    frequency:    4.9808095190
  - # 7
    frequency:    5.1135596996
  - # 8
    frequency:    5.1135596996
  - # 9
    frequency:    9.3766045114
  - # 10
    frequency:    9.3767811293
  - # 11
    frequency:    9.3767811293
  - # 12
    frequency:   12.8226192369
  - # 13
    frequency:   14.2548475710
  - # 14
    frequency:   14.2548475710
  - # 15
    frequency:   18.3304230685

- q-position: [    0.0000000,    0.0333333,    0.0000000 ]
  band:
  - # 1
    frequency:   -3.7309302575
  - # 2
    frequency:   -3.7309302575
  - # 3
    frequency:    0.3969286918
  - # 4
    frequency:    0.3969286918
  - # 5
    frequency:    0.6060989618
  - # 6
    frequency:    5.0135055925
  - # 7
    frequency:    5.1178250555
  - # 8
    frequency:    5.1178250555
  - # 9
    frequency:    9.3801094283
  - # 10
    frequency:    9.3808302251
  - # 11
    frequency:    9.3808302251
  - # 12
    frequency:   12.8360568832
  - # 13
    frequency:   14.2500662677
  - # 14
    frequency:   14.2500662677
  - # 15
    frequency:   18.3361361555

- q-position: [    0.0000000,    0.0500000,    0.0000000 ]
  band:
  - # 1
    frequency:   -3.7112166949
  - # 2
    frequency:   -3.7112166949
  - # 3
    frequency:    0.5860886672
  - # 4
    frequency:    0.5860886672
  - # 5
    frequency:    0.9032619409
  - # 6
    frequency:    5.0675642753
  - # 7
    frequency:    5.1250114849
  - # 8
    frequency:    5.1250114849
  - # 9
    frequency:    9.3859053994
  - # 10
    frequency:    9.3875805517
  - # 11
    frequency:    9.3875805517
  - # 12
    frequency:   12.8583997818
  - # 13
    frequency:   14.2421141448
  - # 14
    frequency:   14.2421141448
  - # 15
    frequency:   18.3455580929

- q-position: [    0.0000000,    0.0666667,    0.0000000 ]
  band:
  - # 1
    frequency:   -3.6842155088
  - # 2
    frequency:   -3.6842155088
  - # 3
    frequency:    0.7756029423
  - # 4
    frequency:    0.7756029423
  - # 5
    frequency:    1.1928315498
  - # 6
    frequency:    5.1352332502
  - # 7
    frequency:    5.1352332502
  - # 8
    frequency:    5.1423082628
  - # 9
    frequency:    9.3939247563
  - # 10
    frequency:    9.3970342621
  - # 11
    frequency:    9.3970342621
  - # 12
    frequency:   12.8895652877
  - # 13
    frequency:   14.2310168529
  - # 14
    frequency:   14.2310168529
  - # 15
    frequency:   18.3585409716

- q-position: [    0.0000000,    0.0833333,    0.0000000 ]
  band:
  - # 1
    frequency:   -3.6504896467
  - # 2
    frequency:   -3.6504896467
  - # 3
    frequency:    0.9639175821
  - # 4
    frequency:    0.9639175821
  - # 5
    frequency:    1.4727670504
  - # 6
    frequency:    5.1486458597
  - # 7
    frequency:    5.1486458597
  - # 8
    frequency:    5.2367439813
  - # 9
    frequency:    9.4040740819
  - # 10
    frequency:    9.4091931337
  - # 11
    frequency:    9.4091931337
  - # 12
    frequency:   12.9294319226
  - # 13
    frequency:   14.2168114619
  - # 14
    frequency:   14.2168114619
  - # 15
    frequency:   18.3748815011

- q-position: [    0.0000000,    0.1000000,    0.0000000 ]
  band:
  - # 1
    frequency:   -3.6107143638
  - # 2
    frequency:   -3.6107143638
  - # 3
    frequency:    1.1499887553
  - # 4
    frequency:    1.1499887553
  - # 5
    frequency:    1.7413179403
  - # 6
    frequency:    5.1654405057
  - # 7
    frequency:    5.1654405057
  - # 8
    frequency:    5.3495289986
  - # 9
    frequency:    9.4162354949
  - # 10
    frequency:    9.4240572326
  - # 11
    frequency:    9.4240572326
  - # 12
    frequency:   12.9778335764
  - # 13
    frequency:   14.1995476326
  - # 14
    frequency:   14.1995476326
  - # 15
    frequency:   18.3943247384

- q-position: [    0.0000000,    0.1166667,    0.0000000 ]
  band:
  - # 1
    frequency:   -3.5656438855
  - # 2
    frequency:   -3.5656438855
  - # 3
    frequency:    1.3328258125
  - # 4
    frequency:    1.3328258125
  - # 5
    frequency:    1.9971233318
  - # 6
    frequency:    5.1858353732
  - # 7
    frequency:    5.1858353732
  - # 8
    frequency:    5.4789498322
  - # 9
    frequency:    9.4302682533
  - # 10
    frequency:    9.4416230605
  - # 11
    frequency:    9.4416230605
  - # 12
    frequency:   13.0345520876
  - # 13
    frequency:   14.1792891382
  - # 14
    frequency:   14.1792891382
  - # 15
    frequency:   18.4165688052

- q-position: [    0.0000000,    0.1333333,    0.0000000 ]
  band:
  - # 1
    frequency:   -3.5160752830
  - # 2
    frequency:   -3.5160752830
  - # 3
    frequency:    1.5113817337
  - # 4
    frequency:    1.5113817337
  - # 5
    frequency:    2.2392604687
  - # 6
    frequency:    5.2100627834
  - # 7
    frequency:    5.2100627834
  - # 8
    frequency:    5.6229238916
  - # 9
    frequency:    9.4460106429
  - # 10
    frequency:    9.4618810846
  - # 11
    frequency:    9.4618810846
  - # 12
    frequency:   13.0993083398
  - # 13
    frequency:   14.1561157481
  - # 14
    frequency:   14.1561157481
  - # 15
    frequency:   18.4412705340

- q-position: [    0.0000000,    0.1500000,    0.0000000 ]
  band:
  - # 1
    frequency:   -3.4628131041
  - # 2
    frequency:   -3.4628131041
  - # 3
    frequency:    1.6845372112
  - # 4
    frequency:    1.6845372112
  - # 5
    frequency:    2.4672492752
  - # 6
    frequency:    5.2383511580
  - # 7
    frequency:    5.2383511580
  - # 8
    frequency:    5.7790365409
  - # 9
    frequency:    9.4632821147
  - # 10
    frequency:    9.4848125448
  - # 11
    frequency:    9.4848125448
  - # 12
    frequency:   13.1717521502
  - # 13
    frequency:   14.1301254822
  - # 14
    frequency:   14.1301254822
  - # 15
    frequency:   18.4680519718

- q-position: [    0.0000000,    0.1666667,    0.0000000 ]
  band:
  - # 1
    frequency:   -3.4066385280
  - # 2
    frequency:   -3.4066385280
  - # 3
    frequency:    1.8511251605
  - # 4
    frequency:    1.8511251605
  - # 5
    frequency:    2.6810128448
  - # 6
    frequency:    5.2709011031
  - # 7
    frequency:    5.2709011031
  - # 8
    frequency:    5.9446164526
  - # 9
    frequency:    9.4818856287
  - # 10
    frequency:    9.5103854253
  - # 11
    frequency:    9.5103854253
  - # 12
    frequency:   13.2514514066
  - # 13
    frequency:   14.1014372459
  - # 14
    frequency:   14.1014372459
  - # 15
    frequency:   18.4965076514

- q-position: [    0.0000000,    0.1833333,    0.0000000 ]
  band:
  - # 1
    frequency:   -3.3482862268
  - # 2
    frequency:   -3.3482862268
  - # 3
    frequency:    2.0099785355
  - # 4
    frequency:    2.0099785355
  - # 5
    frequency:    2.8808014724
  - # 6
    frequency:    5.3078556577
  - # 7
    frequency:    5.3078556577
  - # 8
    frequency:    6.1168420351
  - # 9
    frequency:    9.5016101618
  - # 10
    frequency:    9.5385494894
  - # 11
    frequency:    9.5385494894
  - # 12
    frequency:   13.3378811087
  - # 13
    frequency:   14.0701938464
  - # 14
    frequency:   14.0701938464
  - # 15
    frequency:   18.5262125268

- q-position: [    0.0000000,    0.2000000,    0.0000000 ]
  band:
  - # 1
    frequency:   -3.2884308011
  - # 2
    frequency:   -3.2884308011
  - # 3
    frequency:    2.1599917349
  - # 4
    frequency:    2.1599917349
  - # 5
    frequency:    3.0670956836
  - # 6
    frequency:    5.3492660087
  - # 7
    frequency:    5.3492660087
  - # 8
    frequency:    6.2928632352
  - # 9
    frequency:    9.5222333361
  - # 10
    frequency:    9.5692303090
  - # 11
    frequency:    9.5692303090
  - # 12
    frequency:   13.4304131631
  - # 13
    frequency:   14.0365653848
  - # 14
    frequency:   14.0365653848
  - # 15
    frequency:   18.5567304500

- q-position: [    0.0000000,    0.2166667,    0.0000000 ]
  band:
  - # 1
    frequency:   -3.2276829863
  - # 2
    frequency:   -3.2276829863
  - # 3
    frequency:    2.3001869142
  - # 4
    frequency:    2.3001869142
  - # 5
    frequency:    3.2405065357
  - # 6
    frequency:    5.3950556401
  - # 7
    frequency:    5.3950556401
  - # 8
    frequency:    6.4699200581
  - # 9
    frequency:    9.5435241250
  - # 10
    frequency:    9.6023222702
  - # 11
    frequency:    9.6023222702
  - # 12
    frequency:   13.5283079306
  - # 13
    frequency:   14.0007529981
  - # 14
    frequency:   14.0007529981
  - # 15
    frequency:   18.5876230435

- q-position: [    0.0000000,    0.2333333,    0.0000000 ]
  band:
  - # 1
    frequency:   -3.1665942995
  - # 2
    frequency:   -3.1665942995
  - # 3
    frequency:    2.4297763274
  - # 4
    frequency:    2.4297763274
  - # 5
    frequency:    3.4016884431
  - # 6
    frequency:    5.4449876073
  - # 7
    frequency:    5.4449876073
  - # 8
    frequency:    6.6454421873
  - # 9
    frequency:    9.5652455963
  - # 10
    frequency:    9.6376806277
  - # 11
    frequency:    9.6376806277
  - # 12
    frequency:   13.6307085818
  - # 13
    frequency:   13.9629929017
  - # 14
    frequency:   13.9629929017
  - # 15
    frequency:   18.6184588030

- q-position: [    0.0000000,    0.2500000,    0.0000000 ]
  band:
  - # 1
    frequency:   -3.1056677848
  - # 2
    frequency:   -3.1056677848
  - # 3
    frequency:    2.5482121051
  - # 4
    frequency:    2.5482121051
  - # 5
    frequency:    3.5512732881
  - # 6
    frequency:    5.4986407623
  - # 7
    frequency:    5.4986407623
  - # 8
    frequency:    6.8171206936
  - # 9
    frequency:    9.5871576542
  - # 10
    frequency:    9.6751127965
  - # 11
    frequency:    9.6751127965
  - # 12
    frequency:   13.7366392567
  - # 13
    frequency:   13.9235606417
  - # 14
    frequency:   13.9235606417
  - # 15
    frequency:   18.6488222280

- q-position: [    0.0000000,    0.2666667,    0.0000000 ]
  band:
  - # 1
    frequency:   -3.0453721542
  - # 2
    frequency:   -3.0453721542
  - # 3
    frequency:    2.6552163566
  - # 4
    frequency:    2.6552163566
  - # 5
    frequency:    3.6898278527
  - # 6
    frequency:    5.5554005797
  - # 7
    frequency:    5.5554005797
  - # 8
    frequency:    6.9829497462
  - # 9
    frequency:    9.6090197449
  - # 10
    frequency:    9.7143692260
  - # 11
    frequency:    9.7143692260
  - # 12
    frequency:   13.8450078327
  - # 13
    frequency:   13.8827754085
  - # 14
    frequency:   13.8827754085
  - # 15
    frequency:   18.6783227502

- q-position: [    0.0000000,    0.2833333,    0.0000000 ]
  band:
  - # 1
    frequency:   -2.9861567978
  - # 2
    frequency:   -2.9861567978
  - # 3
    frequency:    2.7507874065
  - # 4
    frequency:    2.7507874065
  - # 5
    frequency:    3.8178318519
  - # 6
    frequency:    5.6144683369
  - # 7
    frequency:    5.6144683369
  - # 8
    frequency:    7.1412412941
  - # 9
    frequency:    9.6305934942
  - # 10
    frequency:    9.7551343893
  - # 11
    frequency:    9.7551343893
  - # 12
    frequency:   13.8410041854
  - # 13
    frequency:   13.8410041854
  - # 14
    frequency:   13.9546137985
  - # 15
    frequency:   18.7066031813

- q-position: [    0.0000000,    0.3000000,    0.0000000 ]
  band:
  - # 1
    frequency:   -2.9284656326
  - # 2
    frequency:   -2.9284656326
  - # 3
    frequency:    2.8351819620
  - # 4
    frequency:    2.8351819620
  - # 5
    frequency:    3.9356715931
  - # 6
    frequency:    5.6748890540
  - # 7
    frequency:    5.6748890540
  - # 8
    frequency:    7.2906182798
  - # 9
    frequency:    9.6516452518
  - # 10
    frequency:    9.7970186228
  - # 11
    frequency:    9.7970186228
  - # 12
    frequency:   13.7986653962
  - # 13
    frequency:   13.7986653962
  - # 14
    frequency:   14.0641613564
  - # 15
    frequency:   18.7333473612

- q-position: [    0.0000000,    0.3166667,    0.0000000 ]
  band:
  - # 1
    frequency:   -2.8727483305
  - # 2
    frequency:   -2.8727483305
  - # 3
    frequency:    2.9088770741
  - # 4
    frequency:    2.9088770741
  - # 5
    frequency:    4.0436440084
  - # 6
    frequency:    5.7355947948
  - # 7
    frequency:    5.7355947948
  - # 8
    frequency:    7.4299925758
  - # 9
    frequency:    9.6719485165
  - # 10
    frequency:    9.8395517614
  - # 11
    frequency:    9.8395517614
  - # 12
    frequency:   13.7562315818
  - # 13
    frequency:   13.7562315818
  - # 14
    frequency:   14.1722774984
  - # 15
    frequency:   18.7582866344

- q-position: [    0.0000000,    0.3333333,    0.0000000 ]
  band:
  - # 1
    frequency:   -2.8194679814
  - # 2
    frequency:   -2.8194679814
  - # 3
    frequency:    2.9725187260
  - # 4
    frequency:    2.9725187260
  - # 5
    frequency:    4.1419666188
  - # 6
    frequency:    5.7954569908
  - # 7
    frequency:    5.7954569908
  - # 8
    frequency:    7.5585333051
  - # 9
    frequency:    9.6912862252
  - # 10
    frequency:    9.8821796989
  - # 11
    frequency:    9.8821796989
  - # 12
    frequency:   13.7142304706
  - # 13
    frequency:   13.7142304706
  - # 14
    frequency:   14.2775344847
  - # 15
    frequency:   18.7812047451

- q-position: [    0.0000000,    0.3500000,    0.0000000 ]
  band:
  - # 1
    frequency:   -2.7691046266
  - # 2
    frequency:   -2.7691046266
  - # 3
    frequency:    3.0268649478
  - # 4
    frequency:    3.0268649478
  - # 5
    frequency:    4.2307901693
  - # 6
    frequency:    5.8533403035
  - # 7
    frequency:    5.8533403035
  - # 8
    frequency:    7.6756301900
  - # 9
    frequency:    9.7094528884
  - # 10
    frequency:    9.9242651353
  - # 11
    frequency:    9.9242651353
  - # 12
    frequency:   13.6732436346
  - # 13
    frequency:   13.6732436346
  - # 14
    frequency:   14.3784759517
  - # 15
    frequency:   18.8019407118

- q-position: [    0.0000000,    0.3666667,    0.0000000 ]
  band:
  - # 1
    frequency:   -2.7221543762
  - # 2
    frequency:   -2.7221543762
  - # 3
    frequency:    3.0727304925
  - # 4
    frequency:    3.0727304925
  - # 5
    frequency:    4.3102117965
  - # 6
    frequency:    5.9081513386
  - # 7
    frequency:    5.9081513386
  - # 8
    frequency:    7.7808554744
  - # 9
    frequency:    9.7262565619
  - # 10
    frequency:    9.9650938092
  - # 11
    frequency:    9.9650938092
  - # 12
    frequency:   13.6339017636
  - # 13
    frequency:   13.6339017636
  - # 14
    frequency:   14.4736457889
  - # 15
    frequency:   18.8203892538

- q-position: [    0.0000000,    0.3833333,    0.0000000 ]
  band:
  - # 1
    frequency:   -2.6791240384
  - # 2
    frequency:   -2.6791240384
  - # 3
    frequency:    3.1109379782
  - # 4
    frequency:    3.1109379782
  - # 5
    frequency:    4.3802874700
  - # 6
    frequency:    5.9588776635
  - # 7
    frequency:    5.9588776635
  - # 8
    frequency:    7.8739269677
  - # 9
    frequency:    9.7415206433
  - # 10
    frequency:   10.0038874163
  - # 11
    frequency:   10.0038874163
  - # 12
    frequency:   13.5968755021
  - # 13
    frequency:   13.5968755021
  - # 14
    frequency:   14.5616189419
  - # 15
    frequency:   18.8364984057

- q-position: [    0.0000000,    0.4000000,    0.0000000 ]
  band:
  - # 1
    frequency:   -2.6405214066
  - # 2
    frequency:   -2.6405214066
  - # 3
    frequency:    3.1422779336
  - # 4
    frequency:    3.1422779336
  - # 5
    frequency:    4.4410430693
  - # 6
    frequency:    6.0046151569
  - # 7
    frequency:    6.0046151569
  - # 8
    frequency:    7.9546739150
  - # 9
    frequency:    9.7550854880
  - # 10
    frequency:   10.0398241121
  - # 11
    frequency:   10.0398241121
  - # 12
    frequency:   13.5628608617
  - # 13
    frequency:   13.5628608617
  - # 14
    frequency:   14.6410333437
  - # 15
    frequency:   18.8502640977

- q-position: [    0.0000000,    0.4166667,    0.0000000 ]
  band:
  - # 1
    frequency:   -2.6068416273
  - # 2
    frequency:   -2.6068416273
  - # 3
    frequency:    3.1674781007
  - # 4
    frequency:    3.1674781007
  - # 5
    frequency:    4.4924838466
  - # 6
    frequency:    6.0445839732
  - # 7
    frequency:    6.0445839732
  - # 8
    frequency:    8.0230067246
  - # 9
    frequency:    9.7668098393
  - # 10
    frequency:   10.0720669359
  - # 11
    frequency:   10.0720669359
  - # 12
    frequency:   13.5325585335
  - # 13
    frequency:   13.5325585335
  - # 14
    frequency:   14.7106222077
  - # 15
    frequency:   18.8617217156

- q-position: [    0.0000000,    0.4333333,    0.0000000 ]
  band:
  - # 1
    frequency:   -2.5785504157
  - # 2
    frequency:   -2.5785504157
  - # 3
    frequency:    3.1871810145
  - # 4
    frequency:    3.1871810145
  - # 5
    frequency:    4.5346022546
  - # 6
    frequency:    6.0781349431
  - # 7
    frequency:    6.0781349431
  - # 8
    frequency:    8.0788910695
  - # 9
    frequency:    9.7765720704
  - # 10
    frequency:   10.0997996164
  - # 11
    frequency:   10.0997996164
  - # 12
    frequency:   13.5066470785
  - # 13
    frequency:   13.5066470785
  - # 14
    frequency:   14.7692458550
  - # 15
    frequency:   18.8709349854

- q-position: [    0.0000000,    0.4500000,    0.0000000 ]
  band:
  - # 1
    frequency:   -2.5560652874
  - # 2
    frequency:   -2.5560652874
  - # 3
    frequency:    3.2019282738
  - # 4
    frequency:    3.2019282738
  - # 5
    frequency:    4.5673842341
  - # 6
    frequency:    6.1047490091
  - # 7
    frequency:    6.1047490091
  - # 8
    frequency:    8.1223265035
  - # 9
    frequency:    9.7842712354
  - # 10
    frequency:   10.1222680394
  - # 11
    frequency:   10.1222680394
  - # 12
    frequency:   13.4857509923
  - # 13
    frequency:   13.4857509923
  - # 14
    frequency:   14.8159221050
  - # 15
    frequency:   18.8779829234

- q-position: [    0.0000000,    0.4666667,    0.0000000 ]
  band:
  - # 1
    frequency:   -2.5397363639
  - # 2
    frequency:   -2.5397363639
  - # 3
    frequency:    3.2121498687
  - # 4
    frequency:    3.2121498687
  - # 5
    frequency:    4.5908141003
  - # 6
    frequency:    6.1240324558
  - # 7
    frequency:    6.1240324558
  - # 8
    frequency:    8.1533294907
  - # 9
    frequency:    9.7898279295
  - # 10
    frequency:   10.1388242934
  - # 11
    frequency:   10.1388242934
  - # 12
    frequency:   13.4704059213
  - # 13
    frequency:   13.4704059213
  - # 14
    frequency:   14.8498540434
  - # 15
    frequency:   18.8829459952

- q-position: [    0.0000000,    0.4833333,    0.0000000 ]
  band:
  - # 1
    frequency:   -2.5298285892
  - # 2
    frequency:   -2.5298285892
  - # 3
    frequency:    3.2181571743
  - # 4
    frequency:    3.2181571743
  - # 5
    frequency:    4.6048781722
  - # 6
    frequency:    6.1357104522
  - # 7
    frequency:    6.1357104522
  - # 8
    frequency:    8.1719206174
  - # 9
    frequency:    9.7931849575
  - # 10
    frequency:   10.1489689496
  - # 11
    frequency:   10.1489689496
  - # 12
    frequency:   13.4610245754
  - # 13
    frequency:   13.4610245754
  - # 14
    frequency:   14.8704537975
  - # 15
    frequency:   18.8858929416

- q-position: [    0.0000000,    0.5000000,    0.0000000 ]
  band:
  - # 1
    frequency:   -2.5265072649
  - # 2
    frequency:   -2.5265072649
  - # 3
    frequency:    3.2201385922
  - # 4
    frequency:    3.2201385922
  - # 5
    frequency:    4.6095672695
  - # 6
    frequency:    6.1396209542
  - # 7
    frequency:    6.1396209542
  - # 8
    frequency:    8.1781157101
  - # 9
    frequency:    9.7943078117
  - # 10
    frequency:   10.1523864850
  - # 11
    frequency:   10.1523864850
  - # 12
    frequency:   13.4578677168
  - # 13
    frequency:   13.4578677168
  - # 14
    frequency:   14.8773608789
  - # 15
    frequency:   18.8868698543

- q-position: [    0.0166667,    0.5000000,    0.0000000 ]
  band:
  - # 1
    frequency:   -2.5229514347
  - # 2
    frequency:   -2.4551671589
  - # 3
    frequency:    3.2193637224
  - # 4
    frequency:    3.2201565798
  - # 5
    frequency:    4.6048893022
  - # 6
    frequency:    6.1485026192
  - # 7
    frequency:    6.1541873548
  - # 8
    frequency:    8.1736306327
  - # 9
    frequency:    9.7428938477
  - # 10
    frequency:   10.1527460744
  - # 11
    frequency:   10.2043324633
  - # 12
    frequency:   13.4540633968
  - # 13
    frequency:   13.4550272143
  - # 14
    frequency:   14.8742138161
  - # 15
    frequency:   18.8938487223

- q-position: [    0.0333333,    0.5000000,    0.0000000 ]
  band:
  - # 1
    frequency:   -2.5123449926
  - # 2
    frequency:   -2.2300185893
  - # 3
    frequency:    3.2170498104
  - # 4
    frequency:    3.2202102514
  - # 5
    frequency:    4.5926291307
  - # 6
    frequency:    6.1750583468
  - # 7
    frequency:    6.1966558645
  - # 8
    frequency:    8.1598223587
  - # 9
    frequency:    9.6341059316
  - # 10
    frequency:   10.1538208567
  - # 11
    frequency:   10.3150933384
  - # 12
    frequency:   13.4426245122
  - # 13
    frequency:   13.4465043165
  - # 14
    frequency:   14.8647980929
  - # 15
    frequency:   18.9147922271

- q-position: [    0.0500000,    0.5000000,    0.0000000 ]
  band:
  - # 1
    frequency:   -2.4948679947
  - # 2
    frequency:   -1.8041806747
  - # 3
    frequency:    3.2132293889
  - # 4
    frequency:    3.2202987401
  - # 5
    frequency:    4.5779747200
  - # 6
    frequency:    6.2190221886
  - # 7
    frequency:    6.2637569801
  - # 8
    frequency:    8.1356367475
  - # 9
    frequency:    9.5103413448
  - # 10
    frequency:   10.1555989197
  - # 11
    frequency:   10.4433977040
  - # 12
    frequency:   13.4234808536
  - # 13
    frequency:   13.4322949184
  - # 14
    frequency:   14.8491898194
  - # 15
    frequency:   18.9497129913

- q-position: [    0.0666667,    0.5000000,    0.0000000 ]
  band:
  - # 1
    frequency:   -2.4708105486
  - # 2
    frequency:   -0.9719188019
  - # 3
    frequency:    3.2079581344
  - # 4
    frequency:    3.2204206263
  - # 5
    frequency:    4.5696077755
  - # 6
    frequency:    6.2799570953
  - # 7
    frequency:    6.3511320004
  - # 8
    frequency:    8.0993624024
  - # 9
    frequency:    9.3863139885
  - # 10
    frequency:   10.1580605616
  - # 11
    frequency:   10.5763629909
  - # 12
    frequency:   13.3965399261
  - # 13
    frequency:   13.4123924025
  - # 14
    frequency:   14.8275148957
  - # 15
    frequency:   18.9986061744

- q-position: [    0.0833333,    0.5000000,    0.0000000 ]
  band:
  - # 1
    frequency:   -2.4405588834
  - # 2
    frequency:    1.3536763681
  - # 3
    frequency:    3.2013169871
  - # 4
    frequency:    3.2205739736
  - # 5
    frequency:    4.5811222599
  - # 6
    frequency:    6.3572642495
  - # 7
    frequency:    6.4542306314
  - # 8
    frequency:    8.0487982492
  - # 9
    frequency:    9.2687512643
  - # 10
    frequency:   10.1611785163
  - # 11
    frequency:   10.7096315777
  - # 12
    frequency:   13.3617214054
  - # 13
    frequency:   13.3867879779
  - # 14
    frequency:   14.7999475790
  - # 15
    frequency:   19.0614142071

- q-position: [    0.1000000,    0.5000000,    0.0000000 ]
  band:
  - # 1
    frequency:   -2.4045778206
  - # 2
    frequency:    2.2025180504
  - # 3
    frequency:    3.1934149918
  - # 4
    frequency:    3.2207563775
  - # 5
    frequency:    4.6348732382
  - # 6
    frequency:    6.4501960975
  - # 7
    frequency:    6.5688527631
  - # 8
    frequency:    7.9816538954
  - # 9
    frequency:    9.1620460213
  - # 10
    frequency:   10.1649182647
  - # 11
    frequency:   10.8413192907
  - # 12
    frequency:   13.3190010896
  - # 13
    frequency:   13.3554711655
  - # 14
    frequency:   14.7667084664
  - # 15
    frequency:   19.1379840590

- q-position: [    0.1166667,    0.5000000,    0.0000000 ]
  band:
  - # 1
    frequency:   -2.3633913198
  - # 2
    frequency:    2.7799484419
  - # 3
    frequency:    3.1843927209
  - # 4
    frequency:    3.2209650253
  - # 5
    frequency:    4.7663089171
  - # 6
    frequency:    6.5578728424
  - # 7
    frequency:    6.6913627663
  - # 8
    frequency:    7.8962004989
  - # 9
    frequency:    9.0691702484
  - # 10
    frequency:   10.1692384289
  - # 11
    frequency:   10.9704518909
  - # 12
    frequency:   13.2684608994
  - # 13
    frequency:   13.3184304389
  - # 14
    frequency:   14.7280618854
  - # 15
    frequency:   19.2280226039

- q-position: [    0.1333333,    0.5000000,    0.0000000 ]
  band:
  - # 1
    frequency:   -2.3175628745
  - # 2
    frequency:    3.1585195098
  - # 3
    frequency:    3.1744260864
  - # 4
    frequency:    3.2211967634
  - # 5
    frequency:    5.0132739894
  - # 6
    frequency:    6.6793018966
  - # 7
    frequency:    6.8187204960
  - # 8
    frequency:    7.7919445624
  - # 9
    frequency:    8.9914987969
  - # 10
    frequency:   10.1740912428
  - # 11
    frequency:   11.0964688572
  - # 12
    frequency:   13.2103416297
  - # 13
    frequency:   13.2756540362
  - # 14
    frequency:   14.6843126874
  - # 15
    frequency:   19.3310558159

- q-position: [    0.1500000,    0.5000000,    0.0000000 ]
  band:
  - # 1
    frequency:   -2.2676774050
  - # 2
    frequency:    3.1637302811
  - # 3
    frequency:    3.2214481711
  - # 4
    frequency:    3.3687431356
  - # 5
    frequency:    5.3770844302
  - # 6
    frequency:    6.8133995001
  - # 7
    frequency:    6.9484461423
  - # 8
    frequency:    7.6699168142
  - # 9
    frequency:    8.9287135855
  - # 10
    frequency:   10.1794230943
  - # 11
    frequency:   11.2190318615
  - # 12
    frequency:   13.1450959836
  - # 13
    frequency:   13.2271309655
  - # 14
    frequency:   14.6358024491
  - # 15
    frequency:   19.4463968468

- q-position: [    0.1666667,    0.5000000,    0.0000000 ]
  band:
  - # 1
    frequency:   -2.2143259791
  - # 2
    frequency:    3.1525635056
  - # 3
    frequency:    3.2217156381
  - # 4
    frequency:    3.4664685938
  - # 5
    frequency:    5.8147958095
  - # 6
    frequency:    6.9590134692
  - # 7
    frequency:    7.0785890740
  - # 8
    frequency:    7.5323805597
  - # 9
    frequency:    8.8791836203
  - # 10
    frequency:   10.1851751321
  - # 11
    frequency:   11.3379382345
  - # 12
    frequency:   13.0734408105
  - # 13
    frequency:   13.1728522351
  - # 14
    frequency:   14.5829050983
  - # 15
    frequency:   19.5731266560

- q-position: [    0.1833333,    0.5000000,    0.0000000 ]
  band:
  - # 1
    frequency:   -2.1580942535
  - # 2
    frequency:    3.1412300371
  - # 3
    frequency:    3.2219954413
  - # 4
    frequency:    3.5023414769
  - # 5
    frequency:    6.2813535052
  - # 6
    frequency:    7.1149459007
  - # 7
    frequency:    7.2077708761
  - # 8
    frequency:    7.3822056364
  - # 9
    frequency:    8.8406375893
  - # 10
    frequency:   10.1912839293
  - # 11
    frequency:   11.4530765502
  - # 12
    frequency:   12.9964091373
  - # 13
    frequency:   13.1128123551
  - # 14
    frequency:   14.5260220037
  - # 15
    frequency:   19.7100890538

- q-position: [    0.2000000,    0.5000000,    0.0000000 ]
  band:
  - # 1
    frequency:   -2.0995550378
  - # 2
    frequency:    3.1300820788
  - # 3
    frequency:    3.2222838209
  - # 4
    frequency:    3.5062837373
  - # 5
    frequency:    6.7484098914
  - # 6
    frequency:    7.2223037670
  - # 7
    frequency:    7.2799746557
  - # 8
    frequency:    7.3355734921
  - # 9
    frequency:    8.8107563467
  - # 10
    frequency:   10.1976821964
  - # 11
    frequency:   11.5644012559
  - # 12
    frequency:   12.9154040642
  - # 13
    frequency:   13.0470111738
  - # 14
    frequency:   14.4655765946
  - # 15
    frequency:   19.8559001409

- q-position: [    0.2166667,    0.5000000,    0.0000000 ]
  band:
  - # 1
    frequency:   -2.0392649381
  - # 2
    frequency:    3.1195196876
  - # 3
    frequency:    3.2225770515
  - # 4
    frequency:    3.4938496399
  - # 5
    frequency:    7.0553156341
  - # 6
    frequency:    7.1959839028
  - # 7
    frequency:    7.4528725676
  - # 8
    frequency:    7.4659701900
  - # 9
    frequency:    8.7875046281
  - # 10
    frequency:   10.2042995338
  - # 11
    frequency:   11.6719167355
  - # 12
    frequency:   12.8322571498
  - # 13
    frequency:   12.9754561486
  - # 14
    frequency:   14.4020086170
  - # 15
    frequency:   20.0089705253

- q-position: [    0.2333333,    0.5000000,    0.0000000 ]
  band:
  - # 1
    frequency:   -1.9777646784
  - # 2
    frequency:    3.1099879377
  - # 3
    frequency:    3.2228715070
  - # 4
    frequency:    3.4732212234
  - # 5
    frequency:    6.8835189468
  - # 6
    frequency:    7.5319395210
  - # 7
    frequency:    7.6324235216
  - # 8
    frequency:    7.6814752276
  - # 9
    frequency:    8.7692372795
  - # 10
    frequency:   10.2110632167
  - # 11
    frequency:   11.7756663424
  - # 12
    frequency:   12.7492922404
  - # 13
    frequency:   12.8981651892
  - # 14
    frequency:   14.3357681809
  - # 15
    frequency:   20.1675375924

- q-position: [    0.2500000,    0.5000000,    0.0000000 ]
  band:
  - # 1
    frequency:   -1.9155824618
  - # 2