14.399652
5.1200 0.000 0.000 0.000 5.1200 0.000 0.000 0.000 5.1200
2.6750 0.000 0.000 0.000 2.6750 0.000 0.000 0.000 2.6750
7.0290 0.000 0.000 0.000 7.0290 0.000 0.000 0.000 7.0290
-2.060 0.000 0.000 0.000 -2.060 0.000 0.000 0.000 -5.584
