625
3

   1
    0.01000000000000     0.00000000000000     0.00000000000000
    -0.08234627800828    -0.00000000000011    -0.00000000000009
     0.01124756785292    -0.00000000000011    -0.00000000000009
     0.00069845438780    -0.00000000000009    -0.00000000000007
     0.00069501274070    -0.00000000000009    -0.00000000000006
     0.01113567394170    -0.00000000000011    -0.00000000000008
    -0.00363057486085    -0.00002134204349    -0.00000000000008
     0.00134412109736     0.00192251205167    -0.00000000000008
     0.00033570998654     0.00014249387992    -0.00000000000007
     0.00033500262867    -0.00014139393132    -0.00000000000007
     0.00134016740448    -0.00191201585661    -0.00000000000006
    -0.00017324056447    -0.00000070808603    -0.00000000000005
    -0.00000740536193     0.00014199826642    -0.00000000000006
     0.00010033362284     0.00005053751207    -0.00000000000005
     0.00010040681115    -0.00005027456464    -0.00000000000006
    -0.00000668838037    -0.00014188767019    -0.00000000000006
    -0.00017324056447     0.00000070808607    -0.00000000000006
    -0.00000740536191    -0.00014199826638    -0.00000000000007
     0.00010033362282    -0.00005053751197    -0.00000000000007
     0.00010040681114     0.00005027456470    -0.00000000000005
    -0.00000668838037     0.00014188767023    -0.00000000000008
    -0.00363057486086     0.00002134204348    -0.00000000000008
     0.00134412109739    -0.00192251205167    -0.00000000000008
     0.00033570998656    -0.00014249387995    -0.00000000000008
     0.00033500262865     0.00014139393129    -0.00000000000009
     0.00134016740449     0.00191201585664    -0.00000000000010
    -0.00363057486083    -0.00000000000008    -0.00002134204345
     0.00134412109737    -0.00000000000009     0.00192251205172
     0.00033570998656    -0.00000000000009     0.00014249387996
     0.00033500262867    -0.00000000000010    -0.00014139393129
     0.00134016740446    -0.00000000000008    -0.00191201585659
    -0.00068313404710    -0.00000488574880    -0.00000488574876
     0.00015415741781     0.00039677811156     0.00039677811157
     0.00017977723453     0.00007116659267     0.00007116659269
     0.00017975857665    -0.00007075280211    -0.00007075280209
     0.00015560643860    -0.00039591769858    -0.00039591769856
    -0.00011036268467    -0.00000040544510    -0.00000019818666
    -0.00000639139291     0.00007092137001     0.00005462125674
     0.00006547046113     0.00002776259004     0.00002170884480
     0.00006558812969    -0.00002764143156    -0.00002160868417
    -0.00000590640794    -0.00007099771738    -0.00005463234623
    -0.00011036268468     0.00000040544515    -0.00000019818667
    -0.00000639139289    -0.00007092136996     0.00005462125675
     0.00006547046114    -0.00002776258995     0.00002170884484
     0.00006558812965     0.00002764143162    -0.00002160868415
    -0.00000590640793     0.00007099771742    -0.00005463234623
    -0.00068313404709     0.00000488574880    -0.00000488574878
     0.00015415741781    -0.00039677811153     0.00039677811157
     0.00017977723456    -0.00007116659271     0.00007116659273
     0.00017975857662     0.00007075280211    -0.00007075280206
     0.00015560643859     0.00039591769860    -0.00039591769857
    -0.00017324056448    -0.00000000000009    -0.00000070808601
    -0.00000740536192    -0.00000000000010     0.00014199826643
     0.00010033362282    -0.00000000000010     0.00005053751206
     0.00010040681116    -0.00000000000008    -0.00005027456465
    -0.00000668838037    -0.00000000000007    -0.00014188767018
    -0.00011036268468    -0.00000019818669    -0.00000040544512
    -0.00000639139290     0.00005462125673     0.00007092137000
     0.00006547046113     0.00002170884479     0.00002776259003
     0.00006558812969    -0.00002160868420    -0.00002764143155
    -0.00000590640794    -0.00005463234626    -0.00007099771739
    -0.00004578800096    -0.00000011013221    -0.00000011013221
    -0.00000831435581     0.00002163256017     0.00002163256015
     0.00003122671359     0.00000943309723     0.00000943309722
     0.00003129412625    -0.00000939659463    -0.00000939659463
    -0.00000810230863    -0.00002168517882    -0.00002168517884
    -0.00004578800094     0.00000011013228    -0.00000011013223
    -0.00000831435580    -0.00002163256011     0.00002163256016
     0.00003122671367    -0.00000943309717     0.00000943309726
     0.00003129412620     0.00000939659472    -0.00000939659469
    -0.00000810230863     0.00002168517887    -0.00002168517884
    -0.00011036268465     0.00000019818669    -0.00000040544510
    -0.00000639139290    -0.00005462125671     0.00007092137001
     0.00006547046114    -0.00002170884484     0.00002776259000
     0.00006558812966     0.00002160868416    -0.00002764143159
    -0.00000590640795     0.00005463234627    -0.00007099771739
    -0.00017324056446    -0.00000000000007     0.00000070808606
    -0.00000740536190    -0.00000000000009    -0.00014199826640
     0.00010033362281    -0.00000000000009    -0.00005053751200
     0.00010040681114    -0.00000000000007     0.00005027456468
    -0.00000668838037    -0.00000000000008     0.00014188767020
    -0.00011036268467    -0.00000019818668     0.00000040544514
    -0.00000639139289     0.00005462125673    -0.00007092136998
     0.00006547046114     0.00002170884482    -0.00002776258997
     0.00006558812965    -0.00002160868418     0.00002764143160
    -0.00000590640794    -0.00005463234628     0.00007099771740
    -0.00004578800095    -0.00000011013222     0.00000011013225
    -0.00000831435579     0.00002163256016    -0.00002163256013
     0.00003122671367     0.00000943309726    -0.00000943309720
     0.00003129412620    -0.00000939659469     0.00000939659469
    -0.00000810230863    -0.00002168517883     0.00002168517886
    -0.00004578800093     0.00000011013228     0.00000011013226
    -0.00000831435577    -0.00002163256008    -0.00002163256011
     0.00003122671361    -0.00000943309715    -0.00000943309718
     0.00003129412621     0.00000939659474     0.00000939659472
    -0.00000810230859     0.00002168517889     0.00002168517888
    -0.00011036268466     0.00000019818668     0.00000040544513
    -0.00000639139289    -0.00005462125674    -0.00007092136994
     0.00006547046111    -0.00002170884486    -0.00002776258993
     0.00006558812965     0.00002160868420     0.00002764143165
    -0.00000590640794     0.00005463234628     0.00007099771744
    -0.00363057486085    -0.00000000000010     0.00002134204346
     0.00134412109737    -0.00000000000011    -0.00192251205169
     0.00033570998655    -0.00000000000011    -0.00014249387997
     0.00033500262865    -0.00000000000010     0.00014139393128
     0.00134016740448    -0.00000000000012     0.00191201585661
    -0.00068313404710    -0.00000488574881     0.00000488574879
     0.00015415741781     0.00039677811155    -0.00039677811155
     0.00017977723456     0.00007116659269    -0.00007116659273
     0.00017975857661    -0.00007075280211     0.00007075280207
     0.00015560643859    -0.00039591769860     0.00039591769857
    -0.00011036268468    -0.00000040544511     0.00000019818665
    -0.00000639139290     0.00007092137002    -0.00005462125674
     0.00006547046113     0.00002776259000    -0.00002170884487
     0.00006558812967    -0.00002764143159     0.00002160868414
    -0.00000590640794    -0.00007099771740     0.00005463234624
    -0.00011036268467     0.00000040544515     0.00000019818665
    -0.00000639139287    -0.00007092136992    -0.00005462125677
     0.00006547046111    -0.00002776258990    -0.00002170884488
     0.00006558812966     0.00002764143166     0.00002160868419
    -0.00000590640792     0.00007099771746     0.00005463234627
    -0.00068313404711     0.00000488574882     0.00000488574879
     0.00015415741783    -0.00039677811156    -0.00039677811159
     0.00017977723451    -0.00007116659273    -0.00007116659275
     0.00017975857663     0.00007075280211     0.00007075280209
     0.00015560643859     0.00039591769860     0.00039591769859
     0.00130954778120     0.01367192451894     0.01367192451902
     0.00196789831638     0.00076668468717     0.00076668468725
     0.00091849610746     0.00000045296938     0.00000045296948
     0.00196480049653    -0.00076095142669    -0.00076095142659
     0.00140386545287    -0.01361878541556    -0.01361878541552
    -0.00046938999963     0.00131548544930     0.00020047869654
     0.00030700430764     0.00048334846603     0.00018310312901
     0.00034172610098     0.00000040219374     0.00000016048016
     0.00030795752974    -0.00048162557768    -0.00018234674127
    -0.00046526432510    -0.00131838830444    -0.00020137022779
    -0.00015338908589     0.00000000000014     0.00003484224654
     0.00007757172123     0.00000000000022     0.00004053901606
     0.00015157645181     0.00000000000026     0.00000005214637
     0.00007818838105     0.00000000000018    -0.00004047381025
    -0.00015262745482     0.00000000000014    -0.00003503153675
    -0.00046938999959    -0.00131548544922     0.00020047869651
     0.00030700430778    -0.00048334846596     0.00018310312897
     0.00034172610092    -0.00000040219363     0.00000016048047
     0.00030795752960     0.00048162557774    -0.00018234674124
    -0.00046526432504     0.00131838830451    -0.00020137022778
     0.00130954778122    -0.01367192451855     0.01367192451896
     0.00196789831639    -0.00076668468694     0.00076668468726
     0.00091849610746    -0.00000045296912     0.00000045296957
     0.00196480049653     0.00076095142703    -0.00076095142654
     0.00140386545285     0.01361878541595    -0.01361878541557
    -0.00046938999963     0.00020047869646     0.00131548544931
     0.00030700430768     0.00018310312892     0.00048334846606
     0.00034172610098     0.00000016048009     0.00000040219375
     0.00030795752972    -0.00018234674138    -0.00048162557767
    -0.00046526432509    -0.00020137022785    -0.00131838830440
    -0.00017646723395     0.00017176625929     0.00017176625931
     0.00009544765697     0.00014455728846     0.00014455728846
     0.00016233043292     0.00000013934539     0.00000013934543
     0.00009613934426    -0.00014429585378    -0.00014429585373
    -0.00017512160181    -0.00017289807395    -0.00017289807392
    -0.00008329091669     0.00000000000017     0.00004329104280
     0.00003951856322     0.00000000000032     0.00005108017454
     0.00008900658031     0.00000000000064     0.00000005389637
     0.00003993471587     0.00000000000025    -0.00005103782877
    -0.00008288788287     0.00000000000015    -0.00004360695578
    -0.00017646723377    -0.00017176625922     0.00017176625934
     0.00009544765740    -0.00014455728836     0.00014455728867
     0.00016233043284    -0.00000013934516     0.00000013934543
     0.00009613934382     0.00014429585387    -0.00014429585373
    -0.00017512160187     0.00017289807402    -0.00017289807393
    -0.00046938999956    -0.00020047869616     0.00131548544932
     0.00030700430775    -0.00018310312881     0.00048334846611
     0.00034172610095    -0.00000016048031     0.00000040219375
     0.00030795752964     0.00018234674163    -0.00048162557767
    -0.00046526432508     0.00020137022822    -0.00131838830437
    -0.00015338908585     0.00003484224649     0.00000000000011
     0.00007757172122     0.00004053901597     0.00000000000018
     0.00015157645184     0.00000005214632     0.00000000000021
     0.00007818838107    -0.00004047381033     0.00000000000013
    -0.00015262745487    -0.00003503153686     0.00000000000008
    -0.00008329091672     0.00004329104275     0.00000000000013
     0.00003951856325     0.00005108017451     0.00000000000029
     0.00008900658031     0.00000005389635     0.00000000000059
     0.00003993471584    -0.00005103782886     0.00000000000018
    -0.00008288788288    -0.00004360695580     0.00000000000013
    -0.00005222750888     0.00000000000021     0.00000000000014
     0.00002221583215     0.00000000000035     0.00000000000029
     0.00005794560012     0.00000000000021     0.00000000000023
     0.00002249275796     0.00000000000014     0.00000000000008
    -0.00005197544829     0.00000000000011     0.00000000000007
    -0.00008329091661    -0.00004329104267     0.00000000000020
     0.00003951856326    -0.00005108017440     0.00000000000055
     0.00008900658010    -0.00000005389621     0.00000000000018
     0.00003993471583     0.00005103782895     0.00000000000015
    -0.00008288788276     0.00004360695594     0.00000000000017
    -0.00015338908581    -0.00003484224616     0.00000000000012
     0.00007757172127    -0.00004053901584     0.00000000000024
     0.00015157645175    -0.00000005214613     0.00000000000016
     0.00007818838107     0.00004047381068     0.00000000000016
    -0.00015262745484     0.00003503153726     0.00000000000010
    -0.00046938999955     0.00020047869645    -0.00131548544930
     0.00030700430780     0.00018310312886    -0.00048334846603
     0.00034172610093     0.00000016048041    -0.00000040219367
     0.00030795752965    -0.00018234674128     0.00048162557770
    -0.00046526432506    -0.00020137022786     0.00131838830445
    -0.00017646723377     0.00017176625932    -0.00017176625928
     0.00009544765740     0.00014455728859    -0.00014455728843
     0.00016233043285     0.00000013934536    -0.00000013934524
     0.00009613934386    -0.00014429585378     0.00014429585382
    -0.00017512160189    -0.00017289807396     0.00017289807398
    -0.00008329091661     0.00000000000024    -0.00004329104272
     0.00003951856329     0.00000000000061    -0.00005108017444
     0.00008900658013     0.00000000000027    -0.00000005389624
     0.00003993471583     0.00000000000016     0.00005103782889
    -0.00008288788277     0.00000000000020     0.00004360695587
    -0.00017646723331    -0.00017176625919    -0.00017176625926
     0.00009544765744    -0.00014455728836    -0.00014455728842
     0.00016233043240    -0.00000013934520    -0.00000013934527
     0.00009613934376     0.00014429585397     0.00014429585390
    -0.00017512160173     0.00017289807403     0.00017289807399
    -0.00046938999945    -0.00020047869623    -0.00131548544924
     0.00030700430779    -0.00018310312916    -0.00048334846600
     0.00034172610088    -0.00000016048020    -0.00000040219365
     0.00030795752959     0.00018234674160     0.00048162557773
    -0.00046526432502     0.00020137022823     0.00131838830448
     0.00130954778121     0.01367192451890    -0.01367192451858
     0.00196789831638     0.00076668468718    -0.00076668468694
     0.00091849610741     0.00000045296944    -0.00000045296916
     0.00196480049652    -0.00076095142662     0.00076095142700
     0.00140386545290    -0.01361878541564     0.01361878541595
    -0.00046938999958     0.00131548544926    -0.00020047869616
     0.00030700430777     0.00048334846609    -0.00018310312879
     0.00034172610100     0.00000040219378    -0.00000016048028
     0.00030795752967    -0.00048162557768     0.00018234674159
    -0.00046526432510    -0.00131838830441     0.00020137022820
    -0.00015338908582     0.00000000000015    -0.00003484224614
     0.00007757172131     0.00000000000032    -0.00004053901579
     0.00015157645177     0.00000000000024    -0.00000005214610
     0.00007818838105     0.00000000000020     0.00004047381068
    -0.00015262745488     0.00000000000015     0.00003503153721
    -0.00046938999945    -0.00131548544918    -0.00020047869621
     0.00030700430779    -0.00048334846594    -0.00018310312916
     0.00034172610087    -0.00000040219359    -0.00000016048018
     0.00030795752960     0.00048162557779     0.00018234674159
    -0.00046526432504     0.00131838830457     0.00020137022821
     0.00130954778120    -0.01367192451855    -0.01367192451860
     0.00196789831643    -0.00076668468701    -0.00076668468701
     0.00091849610740    -0.00000045296920    -0.00000045296922
     0.00196480049655     0.00076095142699     0.00076095142697
     0.00140386545285     0.01361878541594     0.01361878541599
     0.00366207319391    -0.00130948764633    -0.00000000000027
    -0.00091888409523    -0.00054532137735    -0.00000000000032
    -0.00030227162131    -0.00000028204325    -0.00000000000030
    -0.00091408918752     0.00054017642917    -0.00000000000033
     0.00341852279829     0.00153363886585    -0.00000000000030
     0.00026926572263    -0.00033060708139    -0.00000000000032
    -0.00020211066275    -0.00024213231009    -0.00000000000033
    -0.00013281417737    -0.00000019525936    -0.00000000000015
    -0.00020193388308     0.00024118735848    -0.00000000000032
     0.00026640238948     0.00033146018959    -0.00000000000034
     0.00006973277042    -0.00000000000005    -0.00000000000032
    -0.00003704845747    -0.00000000000011    -0.00000000000034
    -0.00006422541293    -0.00000000000013    -0.00000000000045
    -0.00003729875430    -0.00000000000008    -0.00000000000033
     0.00006933093264    -0.00000000000004    -0.00000000000031
     0.00026926572260     0.00033060708133    -0.00000000000032
    -0.00020211066280     0.00024213231003    -0.00000000000013
    -0.00013281417733     0.00000019525927    -0.00000000000030
    -0.00020193388305    -0.00024118735855    -0.00000000000032
     0.00026640238947    -0.00033146018966    -0.00000000000030
     0.00366207319391     0.00130948764637    -0.00000000000030
    -0.00091888409523     0.00054532137745    -0.00000000000033
    -0.00030227162129     0.00000028204335    -0.00000000000030
    -0.00091408918753    -0.00054017642913    -0.00000000000030
     0.00341852279831    -0.00153363886579    -0.00000000000029
     0.00047802788634    -0.00092387881440    -0.00253084921698
    -0.00030864665426    -0.00016677644491    -0.00052332860439
    -0.00018551482815    -0.00000012356986    -0.00000039453837
    -0.00030850849977     0.00016588861774     0.00052106863128
     0.00046906516832     0.00091695875301     0.00253153191281
     0.00011911603525    -0.00015675603531    -0.00024702938087
    -0.00007568776647    -0.00009778745158    -0.00013860220610
    -0.00008719654107    -0.00000009935552    -0.00000013496923
    -0.00007598191115     0.00009759138802     0.00013819050943
     0.00011791769541     0.00015737460409     0.00024751550425
     0.00004711165074    -0.00000000000005    -0.00004880970831
    -0.00002433684025    -0.00000000000009    -0.00004500072911
    -0.00004567025775    -0.00000000000018    -0.00000004803865
    -0.00002453073594    -0.00000000000009     0.00004493515820
     0.00004686072254    -0.00000000000004     0.00004904806645
     0.00011911603521     0.00015675603526    -0.00024702938089
    -0.00007568776657     0.00009778745150    -0.00013860220608
    -0.00008719654107     0.00000009935546    -0.00000013496950
    -0.00007598191104    -0.00009759138808     0.00013819050941
     0.00011791769541    -0.00015737460414     0.00024751550424
     0.00047802788630     0.00092387881444    -0.00253084921699
    -0.00030864665430     0.00016677644503    -0.00052332860438
    -0.00018551482814     0.00000012357001    -0.00000039453837
    -0.00030850849973    -0.00016588861765     0.00052106863129
     0.00046906516834    -0.00091695875298     0.00253153191283
     0.00007914814620    -0.00002252645522    -0.00025594479619
    -0.00004458196329    -0.00002497952591    -0.00015309735294
    -0.00006785250207    -0.00000002759703    -0.00000013342034
    -0.00004483822187     0.00002491226353     0.00015269158819
     0.00007865686421     0.00002261368397     0.00025689928528
     0.00003895798770    -0.00002440637347    -0.00005688922961
    -0.00001954272597    -0.00002482797985    -0.00005223115986
    -0.00003787754456    -0.00000002612581    -0.00000005258025
    -0.00001971036341     0.00002480666105     0.00005216392976
     0.00003871671390     0.00002456011351     0.00005732085988
     0.00002207553056    -0.00000000000009    -0.00001773571744
    -0.00001021091345    -0.00000000000014    -0.00002070063585
    -0.00002375412428    -0.00000000000021    -0.00000001890437
    -0.00001031890563    -0.00000000000012     0.00002068914955
     0.00002197180761    -0.00000000000006     0.00001789303511
     0.00003895798764     0.00002440637343    -0.00005688922959
    -0.00001954272609     0.00002482797978    -0.00005223116006
    -0.00003787754453     0.00000002612573    -0.00000005257985
    -0.00001971036331    -0.00002480666114     0.00005216392976
     0.00003871671389    -0.00002456011356     0.00005732085987
     0.00007914814619     0.00002252645532    -0.00025594479620
    -0.00004458196333     0.00002497952609    -0.00015309735292
    -0.00006785250204     0.00000002759723    -0.00000013342033
    -0.00004483822183    -0.00002491226341     0.00015269158818
     0.00007865686421    -0.00002261368389     0.00025689928527
     0.00007914814619    -0.00002252645521     0.00025594479606
    -0.00004458196335    -0.00002497952591     0.00015309735279
    -0.00006785250207    -0.00000002759706     0.00000013342018
    -0.00004483822182     0.00002491226351    -0.00015269158827
     0.00007865686421     0.00002261368397    -0.00025689928537
     0.00003895798768    -0.00002440637350     0.00005688922947
    -0.00001954272608    -0.00002482797989     0.00005223115976
    -0.00003787754455    -0.00000002612586     0.00000005257959
    -0.00001971036331     0.00002480666104    -0.00005216392983
     0.00003871671388     0.00002456011349    -0.00005732085994
     0.00002207553054    -0.00000000000013     0.00001773571732
    -0.00001021091354    -0.00000000000019     0.00002070063574
    -0.00002375412417    -0.00000000000011     0.00000001890442
    -0.00001031890556    -0.00000000000006    -0.00002068914962
     0.00002197180760    -0.00000000000007    -0.00001789303521
     0.00003895798757     0.00002440637344     0.00005688922948
    -0.00001954272612     0.00002482797981     0.00005223115943
    -0.00003787754442     0.00000002612576     0.00000005257971
    -0.00001971036329    -0.00002480666113    -0.00005216392984
     0.00003871671386    -0.00002456011354    -0.00005732085996
     0.00007914814614     0.00002252645535     0.00025594479611
    -0.00004458196337     0.00002497952613     0.00015309735284
    -0.00006785250201     0.00000002759724     0.00000013342020
    -0.00004483822180    -0.00002491226342    -0.00015269158826
     0.00007865686420    -0.00002261368389    -0.00025689928536
     0.00047802788632    -0.00092387881437     0.00253084921690
    -0.00030864665432    -0.00016677644492     0.00052332860436
    -0.00018551482816    -0.00000012356994     0.00000039453834
    -0.00030850849972     0.00016588861770    -0.00052106863131
     0.00046906516833     0.00091695875305    -0.00253153191289
     0.00011911603522    -0.00015675603532     0.00024702938084
    -0.00007568776658    -0.00009778745160     0.00013860220610
    -0.00008719654108    -0.00000009935555     0.00000013496958
    -0.00007598191105     0.00009759138800    -0.00013819050943
     0.00011791769542     0.00015737460408    -0.00024751550427
     0.00004711165067    -0.00000000000011     0.00004880970827
    -0.00002433684033    -0.00000000000017     0.00004500072910
    -0.00004567025768    -0.00000000000013     0.00000004803856
    -0.00002453073589    -0.00000000000008    -0.00004493515822
     0.00004686072256    -0.00000000000008    -0.00004904806650
     0.00011911603510     0.00015675603525     0.00024702938089
    -0.00007568776659     0.00009778745150     0.00013860220645
    -0.00008719654099     0.00000009935546     0.00000013496952
    -0.00007598191102    -0.00009759138809    -0.00013819050938
     0.00011791769542    -0.00015737460415    -0.00024751550425
     0.00047802788628     0.00092387881451     0.00253084921691
    -0.00030864665432     0.00016677644513     0.00052332860436
    -0.00018551482812     0.00000012357007     0.00000039453833
    -0.00030850849971    -0.00016588861762    -0.00052106863133
     0.00046906516834    -0.00091695875296    -0.00253153191290
     0.00366207319390    -0.00000000000027    -0.00130948764638
    -0.00091888409522    -0.00000000000031    -0.00054532137738
    -0.00030227162133    -0.00000000000029    -0.00000028204332
    -0.00091408918753    -0.00000000000032     0.00054017642912
     0.00341852279832    -0.00000000000027     0.00153363886581
     0.00047802788632    -0.00253084921696    -0.00092387881446
    -0.00030864665425    -0.00052332860438    -0.00016677644495
    -0.00018551482815    -0.00000039453837    -0.00000012356991
    -0.00030850849976     0.00052106863131     0.00016588861769
     0.00046906516831     0.00253153191283     0.00091695875298
     0.00007914814620    -0.00025594479621    -0.00002252645527
    -0.00004458196330    -0.00015309735294    -0.00002497952597
    -0.00006785250206    -0.00000013342034    -0.00000002759706
    -0.00004483822188     0.00015269158820     0.00002491226348
     0.00007865686422     0.00025689928528     0.00002261368391
     0.00007914814620     0.00025594479607    -0.00002252645525
    -0.00004458196335     0.00015309735280    -0.00002497952595
    -0.00006785250205     0.00000013342018    -0.00000002759711
    -0.00004483822180    -0.00015269158829     0.00002491226347
     0.00007865686418    -0.00025689928538     0.00002261368392
     0.00047802788633     0.00253084921692    -0.00092387881442
    -0.00030864665432     0.00052332860435    -0.00016677644497
    -0.00018551482814     0.00000039453834    -0.00000012356997
    -0.00030850849973    -0.00052106863133     0.00016588861766
     0.00046906516834    -0.00253153191291     0.00091695875301
     0.00026926572263    -0.00000000000031    -0.00033060708141
    -0.00020211066274    -0.00000000000032    -0.00024213231011
    -0.00013281417734    -0.00000000000013    -0.00000019525937
    -0.00020193388307    -0.00000000000032     0.00024118735846
     0.00026640238950    -0.00000000000031     0.00033146018957
     0.00011911603525    -0.00024702938086    -0.00015675603533
    -0.00007568776646    -0.00013860220608    -0.00009778745160
    -0.00008719654109    -0.00000013496923    -0.00000009935555
    -0.00007598191115     0.00013819050944     0.00009759138800
     0.00011791769540     0.00024751550426     0.00015737460406
     0.00003895798770    -0.00005688922961    -0.00002440637350
    -0.00001954272596    -0.00005223115987    -0.00002482797986
    -0.00003787754458    -0.00000005258026    -0.00000002612586
    -0.00001971036341     0.00005216392976     0.00002480666102
     0.00003871671389     0.00005732085986     0.00002456011348
     0.00003895798768     0.00005688922945    -0.00002440637354
    -0.00001954272608     0.00005223115976    -0.00002482797992
    -0.00003787754455     0.00000005257959    -0.00000002612590
    -0.00001971036331    -0.00005216392984     0.00002480666100
     0.00003871671389    -0.00005732085996     0.00002456011347
     0.00011911603521     0.00024702938083    -0.00015675603536
    -0.00007568776660     0.00013860220607    -0.00009778745164
    -0.00008719654108     0.00000013496958    -0.00000009935559
    -0.00007598191103    -0.00013819050942     0.00009759138797
     0.00011791769544    -0.00024751550429     0.00015737460406
     0.00006973277041    -0.00000000000029    -0.00000000000002
    -0.00003704845747    -0.00000000000033    -0.00000000000007
    -0.00006422541293    -0.00000000000043    -0.00000000000009
    -0.00003729875429    -0.00000000000033    -0.00000000000005
     0.00006933093264    -0.00000000000030    -0.00000000000000
     0.00004711165073    -0.00004880970832    -0.00000000000002
    -0.00002433684026    -0.00004500072909    -0.00000000000008
    -0.00004567025774    -0.00000004803863    -0.00000000000014
    -0.00002453073594     0.00004493515822    -0.00000000000007
     0.00004686072256     0.00004904806648    -0.00000000000001
     0.00002207553058    -0.00001773571743    -0.00000000000005
    -0.00001021091347    -0.00002070063587    -0.00000000000012
    -0.00002375412429    -0.00000001890439    -0.00000000000019
    -0.00001031890562     0.00002068914952    -0.00000000000007
     0.00002197180760     0.00001789303511    -0.00000000000003
     0.00002207553053     0.00001773571730    -0.00000000000009
    -0.00001021091353     0.00002070063574    -0.00000000000016
    -0.00002375412420     0.00000001890437    -0.00000000000010
    -0.00001031890557    -0.00002068914963    -0.00000000000003
     0.00002197180759    -0.00001789303522    -0.00000000000005
     0.00004711165068     0.00004880970824    -0.00000000000008
    -0.00002433684032     0.00004500072908    -0.00000000000012
    -0.00004567025768     0.00000004803854    -0.00000000000008
    -0.00002453073589    -0.00004493515824    -0.00000000000005
     0.00004686072256    -0.00004904806653    -0.00000000000004
     0.00026926572258    -0.00000000000030     0.00033060708136
    -0.00020211066280    -0.00000000000014     0.00024213231006
    -0.00013281417733    -0.00000000000030     0.00000019525932
    -0.00020193388303    -0.00000000000031    -0.00024118735850
     0.00026640238946    -0.00000000000028    -0.00033146018961
     0.00011911603521    -0.00024702938088     0.00015675603531
    -0.00007568776658    -0.00013860220607     0.00009778745154
    -0.00008719654108    -0.00000013496947     0.00000009935548
    -0.00007598191106     0.00013819050944    -0.00009759138805
     0.00011791769541     0.00024751550424    -0.00015737460410
     0.00003895798765    -0.00005688922959     0.00002440637345
    -0.00001954272609    -0.00005223116006     0.00002482797981
    -0.00003787754453    -0.00000005257987     0.00000002612579
    -0.00001971036331     0.00005216392975    -0.00002480666110
     0.00003871671389     0.00005732085986    -0.00002456011353
     0.00003895798758     0.00005688922947     0.00002440637348
    -0.00001954272611     0.00005223115942     0.00002482797985