phonopy:
  version: 1.11.12
  nac_unit_conversion_factor: 14.399652
  configuration:
    dim: "5 5 5"
    atom_name: "Ba Ti O"
    qpoints: ".TRUE."
    nac: ".true."
    band: "0.0 0.0 0.0  0.0 0.5 0.0  0.5 0.5 0.0  0.0 0.0 0.0  0.5 0.5 0.5  0.5 0.5 0.0"

supercell_matrix:
- [   5,   0,   0 ]
- [   0,   5,   0 ]
- [   0,   0,   5 ]

primitive_cell:
  lattice:
  - [     3.972509145210001,     0.000000000000000,     0.000000000000000 ] # a
  - [     0.000000000000000,     3.972509145210001,     0.000000000000000 ] # b
  - [     0.000000000000000,     0.000000000000000,     3.972509145210001 ] # c
  points:
  - symbol: Ba # 1
    coordinates: [  0.000000000000000,  0.000000000000000,  0.000000000000000 ]
    mass: 137.327000
  - symbol: Ti # 2
    coordinates: [  0.500000000000000,  0.500000000000000,  0.500000000000000 ]
    mass: 47.867000
  - symbol: O  # 3
    coordinates: [  0.500000000000000,  0.500000000000000,  0.000000000000000 ]
    mass: 15.999400
  - symbol: O  # 4
    coordinates: [  0.500000000000000,  0.000000000000000,  0.500000000000000 ]
    mass: 15.999400
  - symbol: O  # 5
    coordinates: [  0.000000000000000,  0.500000000000000,  0.500000000000000 ]
    mass: 15.999400
  reciprocal_lattice: # without 2pi
  - [     0.251730068691166,     0.000000000000000,     0.000000000000000 ] # a*
  - [     0.000000000000000,     0.251730068691166,     0.000000000000000 ] # b*
  - [     0.000000000000000,     0.000000000000000,     0.251730068691166 ] # c*

unit_cell:
  lattice:
  - [     3.972509145210000,     0.000000000000000,     0.000000000000000 ] # a
  - [     0.000000000000000,     3.972509145210000,     0.000000000000000 ] # b
  - [     0.000000000000000,     0.000000000000000,     3.972509145210000 ] # c
  points:
  - symbol: Ba # 1
    coordinates: [  0.000000000000000,  0.000000000000000,  0.000000000000000 ]
    mass: 137.327000
    reduced_to: 1
  - symbol: Ti # 2
    coordinates: [  0.500000000000000,  0.500000000000000,  0.500000000000000 ]
    mass: 47.867000
    reduced_to: 2
  - symbol: O  # 3
    coordinates: [  0.500000000000000,  0.500000000000000,  0.000000000000000 ]
    mass: 15.999400
    reduced_to: 3
  - symbol: O  # 4
    coordinates: [  0.500000000000000,  0.000000000000000,  0.500000000000000 ]
    mass: 15.999400
    reduced_to: 4
  - symbol: O  # 5
    coordinates: [  0.000000000000000,  0.500000000000000,  0.500000000000000 ]
    mass: 15.999400
    reduced_to: 5

supercell:
  lattice:
  - [    19.862545726050001,     0.000000000000000,     0.000000000000000 ] # a
  - [     0.000000000000000,    19.862545726050001,     0.000000000000000 ] # b
  - [     0.000000000000000,     0.000000000000000,    19.862545726050001 ] # c
  points:
  - symbol: Ba # 1
    coordinates: [  0.000000000000000,  0.000000000000000,  0.000000000000000 ]
    mass: 137.327000
    reduced_to: 1
  - symbol: Ba # 2
    coordinates: [  0.200000000000000,  0.000000000000000,  0.000000000000000 ]
    mass: 137.327000
    reduced_to: 1
  - symbol: Ba # 3
    coordinates: [  0.400000000000000,  0.000000000000000,  0.000000000000000 ]
    mass: 137.327000
    reduced_to: 1
  - symbol: Ba # 4
    coordinates: [  0.600000000000000,  0.000000000000000,  0.000000000000000 ]
    mass: 137.327000
    reduced_to: 1
  - symbol: Ba # 5
    coordinates: [  0.800000000000000,  0.000000000000000,  0.000000000000000 ]
    mass: 137.327000
    reduced_to: 1
  - symbol: Ba # 6
    coordinates: [  0.000000000000000,  0.200000000000000,  0.000000000000000 ]
    mass: 137.327000
    reduced_to: 1
  - symbol: Ba # 7
    coordinates: [  0.200000000000000,  0.200000000000000,  0.000000000000000 ]
    mass: 137.327000
    reduced_to: 1
  - symbol: Ba # 8
    coordinates: [  0.400000000000000,  0.200000000000000,  0.000000000000000 ]
    mass: 137.327000
    reduced_to: 1
  - symbol: Ba # 9
    coordinates: [  0.600000000000000,  0.200000000000000,  0.000000000000000 ]
    mass: 137.327000
    reduced_to: 1
  - symbol: Ba # 10
    coordinates: [  0.800000000000000,  0.200000000000000,  0.000000000000000 ]
    mass: 137.327000
    reduced_to: 1
  - symbol: Ba # 11
    coordinates: [  0.000000000000000,  0.400000000000000,  0.000000000000000 ]
    mass: 137.327000
    reduced_to: 1
  - symbol: Ba # 12
    coordinates: [  0.200000000000000,  0.400000000000000,  0.000000000000000 ]
    mass: 137.327000
    reduced_to: 1
  - symbol: Ba # 13
    coordinates: [  0.400000000000000,  0.400000000000000,  0.000000000000000 ]
    mass: 137.327000
    reduced_to: 1
  - symbol: Ba # 14
    coordinates: [  0.600000000000000,  0.400000000000000,  0.000000000000000 ]
    mass: 137.327000
    reduced_to: 1
  - symbol: Ba # 15
    coordinates: [  0.800000000000000,  0.400000000000000,  0.000000000000000 ]
    mass: 137.327000
    reduced_to: 1
  - symbol: Ba # 16
    coordinates: [  0.000000000000000,  0.600000000000000,  0.000000000000000 ]
    mass: 137.327000
    reduced_to: 1
  - symbol: Ba # 17
    coordinates: [  0.200000000000000,  0.600000000000000,  0.000000000000000 ]
    mass: 137.327000
    reduced_to: 1
  - symbol: Ba # 18
    coordinates: [  0.400000000000000,  0.600000000000000,  0.000000000000000 ]
    mass: 137.327000
    reduced_to: 1
  - symbol: Ba # 19
    coordinates: [  0.600000000000000,  0.600000000000000,  0.000000000000000 ]
    mass: 137.327000
    reduced_to: 1
  - symbol: Ba # 20
    coordinates: [  0.800000000000000,  0.600000000000000,  0.000000000000000 ]
    mass: 137.327000
    reduced_to: 1
  - symbol: Ba # 21
    coordinates: [  0.000000000000000,  0.800000000000000,  0.000000000000000 ]
    mass: 137.327000
    reduced_to: 1
  - symbol: Ba # 22
    coordinates: [  0.200000000000000,  0.800000000000000,  0.000000000000000 ]
    mass: 137.327000
    reduced_to: 1
  - symbol: Ba # 23
    coordinates: [  0.400000000000000,  0.800000000000000,  0.000000000000000 ]
    mass: 137.327000
    reduced_to: 1
  - symbol: Ba # 24
    coordinates: [  0.600000000000000,  0.800000000000000,  0.000000000000000 ]
    mass: 137.327000
    reduced_to: 1
  - symbol: Ba # 25
    coordinates: [  0.800000000000000,  0.800000000000000,  0.000000000000000 ]
    mass: 137.327000
    reduced_to: 1
  - symbol: Ba # 26
    coordinates: [  0.000000000000000,  0.000000000000000,  0.200000000000000 ]
    mass: 137.327000
    reduced_to: 1
  - symbol: Ba # 27
    coordinates: [  0.200000000000000,  0.000000000000000,  0.200000000000000 ]
    mass: 137.327000
    reduced_to: 1
  - symbol: Ba # 28
    coordinates: [  0.400000000000000,  0.000000000000000,  0.200000000000000 ]
    mass: 137.327000
    reduced_to: 1
  - symbol: Ba # 29
    coordinates: [  0.600000000000000,  0.000000000000000,  0.200000000000000 ]
    mass: 137.327000
    reduced_to: 1
  - symbol: Ba # 30
    coordinates: [  0.800000000000000,  0.000000000000000,  0.200000000000000 ]
    mass: 137.327000
    reduced_to: 1
  - symbol: Ba # 31
    coordinates: [  0.000000000000000,  0.200000000000000,  0.200000000000000 ]
    mass: 137.327000
    reduced_to: 1
  - symbol: Ba # 32
    coordinates: [  0.200000000000000,  0.200000000000000,  0.200000000000000 ]
    mass: 137.327000
    reduced_to: 1
  - symbol: Ba # 33
    coordinates: [  0.400000000000000,  0.200000000000000,  0.200000000000000 ]
    mass: 137.327000
    reduced_to: 1
  - symbol: Ba # 34
    coordinates: [  0.600000000000000,  0.200000000000000,  0.200000000000000 ]
    mass: 137.327000
    reduced_to: 1
  - symbol: Ba # 35
    coordinates: [  0.800000000000000,  0.200000000000000,  0.200000000000000 ]
    mass: 137.327000
    reduced_to: 1
  - symbol: Ba # 36
    coordinates: [  0.000000000000000,  0.400000000000000,  0.200000000000000 ]
    mass: 137.327000
    reduced_to: 1
  - symbol: Ba # 37
    coordinates: [  0.200000000000000,  0.400000000000000,  0.200000000000000 ]
    mass: 137.327000
    reduced_to: 1
  - symbol: Ba # 38
    coordinates: [  0.400000000000000,  0.400000000000000,  0.200000000000000 ]
    mass: 137.327000
    reduced_to: 1
  - symbol: Ba # 39
    coordinates: [  0.600000000000000,  0.400000000000000,  0.200000000000000 ]
    mass: 137.327000
    reduced_to: 1
  - symbol: Ba # 40
    coordinates: [  0.800000000000000,  0.400000000000000,  0.200000000000000 ]
    mass: 137.327000
    reduced_to: 1
  - symbol: Ba # 41
    coordinates: [  0.000000000000000,  0.600000000000000,  0.200000000000000 ]
    mass: 137.327000
    reduced_to: 1
  - symbol: Ba # 42
    coordinates: [  0.200000000000000,  0.600000000000000,  0.200000000000000 ]
    mass: 137.327000
    reduced_to: 1
  - symbol: Ba # 43
    coordinates: [  0.400000000000000,  0.600000000000000,  0.200000000000000 ]
    mass: 137.327000
    reduced_to: 1
  - symbol: Ba # 44
    coordinates: [  0.600000000000000,  0.600000000000000,  0.200000000000000 ]
    mass: 137.327000
    reduced_to: 1
  - symbol: Ba # 45
    coordinates: [  0.800000000000000,  0.600000000000000,  0.200000000000000 ]
    mass: 137.327000
    reduced_to: 1
  - symbol: Ba # 46
    coordinates: [  0.000000000000000,  0.800000000000000,  0.200000000000000 ]
    mass: 137.327000
    reduced_to: 1
  - symbol: Ba # 47
    coordinates: [  0.200000000000000,  0.800000000000000,  0.200000000000000 ]
    mass: 137.327000
    reduced_to: 1
  - symbol: Ba # 48
    coordinates: [  0.400000000000000,  0.800000000000000,  0.200000000000000 ]
    mass: 137.327000
    reduced_to: 1
  - symbol: Ba # 49
    coordinates: [  0.600000000000000,  0.800000000000000,  0.200000000000000 ]
    mass: 137.327000
    reduced_to: 1
  - symbol: Ba # 50
    coordinates: [  0.800000000000000,  0.800000000000000,  0.200000000000000 ]
    mass: 137.327000
    reduced_to: 1
  - symbol: Ba # 51
    coordinates: [  0.000000000000000,  0.000000000000000,  0.400000000000000 ]
    mass: 137.327000
    reduced_to: 1
  - symbol: Ba # 52
    coordinates: [  0.200000000000000,  0.000000000000000,  0.400000000000000 ]
    mass: 137.327000
    reduced_to: 1
  - symbol: Ba # 53
    coordinates: [  0.400000000000000,  0.000000000000000,  0.400000000000000 ]
    mass: 137.327000
    reduced_to: 1
  - symbol: Ba # 54
    coordinates: [  0.600000000000000,  0.000000000000000,  0.400000000000000 ]
    mass: 137.327000
    reduced_to: 1
  - symbol: Ba # 55
    coordinates: [  0.800000000000000,  0.000000000000000,  0.400000000000000 ]
    mass: 137.327000
    reduced_to: 1
  - symbol: Ba # 56
    coordinates: [  0.000000000000000,  0.200000000000000,  0.400000000000000 ]
    mass: 137.327000
    reduced_to: 1
  - symbol: Ba # 57
    coordinates: [  0.200000000000000,  0.200000000000000,  0.400000000000000 ]
    mass: 137.327000
    reduced_to: 1
  - symbol: Ba # 58
    coordinates: [  0.400000000000000,  0.200000000000000,  0.400000000000000 ]
    mass: 137.327000
    reduced_to: 1
  - symbol: Ba # 59
    coordinates: [  0.600000000000000,  0.200000000000000,  0.400000000000000 ]
    mass: 137.327000
    reduced_to: 1
  - symbol: Ba # 60
    coordinates: [  0.800000000000000,  0.200000000000000,  0.400000000000000 ]
    mass: 137.327000
    reduced_to: 1
  - symbol: Ba # 61
    coordinates: [  0.000000000000000,  0.400000000000000,  0.400000000000000 ]
    mass: 137.327000
    reduced_to: 1
  - symbol: Ba # 62
    coordinates: [  0.200000000000000,  0.400000000000000,  0.400000000000000 ]
    mass: 137.327000
    reduced_to: 1
  - symbol: Ba # 63
    coordinates: [  0.400000000000000,  0.400000000000000,  0.400000000000000 ]
    mass: 137.327000
    reduced_to: 1
  - symbol: Ba # 64
    coordinates: [  0.600000000000000,  0.400000000000000,  0.400000000000000 ]
    mass: 137.327000
    reduced_to: 1
  - symbol: Ba # 65
    coordinates: [  0.800000000000000,  0.400000000000000,  0.400000000000000 ]
    mass: 137.327000
    reduced_to: 1
  - symbol: Ba # 66
    coordinates: [  0.000000000000000,  0.600000000000000,  0.400000000000000 ]
    mass: 137.327000
    reduced_to: 1
  - symbol: Ba # 67
    coordinates: [  0.200000000000000,  0.600000000000000,  0.400000000000000 ]
    mass: 137.327000
    reduced_to: 1
  - symbol: Ba # 68
    coordinates: [  0.400000000000000,  0.600000000000000,  0.400000000000000 ]
    mass: 137.327000
    reduced_to: 1
  - symbol: Ba # 69
    coordinates: [  0.600000000000000,  0.600000000000000,  0.400000000000000 ]
    mass: 137.327000
    reduced_to: 1
  - symbol: Ba # 70
    coordinates: [  0.800000000000000,  0.600000000000000,  0.400000000000000 ]
    mass: 137.327000
    reduced_to: 1
  - symbol: Ba # 71
    coordinates: [  0.000000000000000,  0.800000000000000,  0.400000000000000 ]
    mass: 137.327000
    reduced_to: 1
  - symbol: Ba # 72
    coordinates: [  0.200000000000000,  0.800000000000000,  0.400000000000000 ]
    mass: 137.327000
    reduced_to: 1
  - symbol: Ba # 73
    coordinates: [  0.400000000000000,  0.800000000000000,  0.400000000000000 ]
    mass: 137.327000
    reduced_to: 1
  - symbol: Ba # 74
    coordinates: [  0.600000000000000,  0.800000000000000,  0.400000000000000 ]
    mass: 137.327000
    reduced_to: 1
  - symbol: Ba # 75
    coordinates: [  0.800000000000000,  0.800000000000000,  0.400000000000000 ]
    mass: 137.327000
    reduced_to: 1
  - symbol: Ba # 76
    coordinates: [  0.000000000000000,  0.000000000000000,  0.600000000000000 ]
    mass: 137.327000
    reduced_to: 1
  - symbol: Ba # 77
    coordinates: [  0.200000000000000,  0.000000000000000,  0.600000000000000 ]
    mass: 137.327000
    reduced_to: 1
  - symbol: Ba # 78
    coordinates: [  0.400000000000000,  0.000000000000000,  0.600000000000000 ]
    mass: 137.327000
    reduced_to: 1
  - symbol: Ba # 79
    coordinates: [  0.600000000000000,  0.000000000000000,  0.600000000000000 ]
    mass: 137.327000
    reduced_to: 1
  - symbol: Ba # 80
    coordinates: [  0.800000000000000,  0.000000000000000,  0.600000000000000 ]
    mass: 137.327000
    reduced_to: 1
  - symbol: Ba # 81
    coordinates: [  0.000000000000000,  0.200000000000000,  0.600000000000000 ]
    mass: 137.327000
    reduced_to: 1
  - symbol: Ba # 82
    coordinates: [  0.200000000000000,  0.200000000000000,  0.600000000000000 ]
    mass: 137.327000
    reduced_to: 1
  - symbol: Ba # 83
    coordinates: [  0.400000000000000,  0.200000000000000,  0.600000000000000 ]
    mass: 137.327000
    reduced_to: 1
  - symbol: Ba # 84
    coordinates: [  0.600000000000000,  0.200000000000000,  0.600000000000000 ]
    mass: 137.327000
    reduced_to: 1
  - symbol: Ba # 85
    coordinates: [  0.800000000000000,  0.200000000000000,  0.600000000000000 ]
    mass: 137.327000
    reduced_to: 1
  - symbol: Ba # 86
    coordinates: [  0.000000000000000,  0.400000000000000,  0.600000000000000 ]
    mass: 137.327000
    reduced_to: 1
  - symbol: Ba # 87
    coordinates: [  0.200000000000000,  0.400000000000000,  0.600000000000000 ]
    mass: 137.327000
    reduced_to: 1
  - symbol: Ba # 88
    coordinates: [  0.400000000000000,  0.400000000000000,  0.600000000000000 ]
    mass: 137.327000
    reduced_to: 1
  - symbol: Ba # 89
    coordinates: [  0.600000000000000,  0.400000000000000,  0.600000000000000 ]
    mass: 137.327000
    reduced_to: 1
  - symbol: Ba # 90
    coordinates: [  0.800000000000000,  0.400000000000000,  0.600000000000000 ]
    mass: 137.327000
    reduced_to: 1
  - symbol: Ba # 91
    coordinates: [  0.000000000000000,  0.600000000000000,  0.600000000000000 ]
    mass: 137.327000
    reduced_to: 1
  - symbol: Ba # 92
    coordinates: [  0.200000000000000,  0.600000000000000,  0.600000000000000 ]
    mass: 137.327000
    reduced_to: 1
  - symbol: Ba # 93
    coordinates: [  0.400000000000000,  0.600000000000000,  0.600000000000000 ]
    mass: 137.327000
    reduced_to: 1
  - symbol: Ba # 94
    coordinates: [  0.600000000000000,  0.600000000000000,  0.600000000000000 ]
    mass: 137.327000
    reduced_to: 1
  - symbol: Ba # 95
    coordinates: [  0.800000000000000,  0.600000000000000,  0.600000000000000 ]
    mass: 137.327000
    reduced_to: 1
  - symbol: Ba # 96
    coordinates: [  0.000000000000000,  0.800000000000000,  0.600000000000000 ]
    mass: 137.327000
    reduced_to: 1
  - symbol: Ba # 97
    coordinates: [  0.200000000000000,  0.800000000000000,  0.600000000000000 ]
    mass: 137.327000
    reduced_to: 1
  - symbol: Ba # 98
    coordinates: [  0.400000000000000,  0.800000000000000,  0.600000000000000 ]
    mass: 137.327000
    reduced_to: 1
  - symbol: Ba # 99
    coordinates: [  0.600000000000000,  0.800000000000000,  0.600000000000000 ]
    mass: 137.327000
    reduced_to: 1
  - symbol: Ba # 100
    coordinates: [  0.800000000000000,  0.800000000000000,  0.600000000000000 ]
    mass: 137.327000
    reduced_to: 1
  - symbol: Ba # 101
    coordinates: [  0.000000000000000,  0.000000000000000,  0.800000000000000 ]
    mass: 137.327000
    reduced_to: 1
  - symbol: Ba # 102
    coordinates: [  0.200000000000000,  0.000000000000000,  0.800000000000000 ]
    mass: 137.327000
    reduced_to: 1
  - symbol: Ba # 103
    coordinates: [  0.400000000000000,  0.000000000000000,  0.800000000000000 ]
    mass: 137.327000
    reduced_to: 1
  - symbol: Ba # 104
    coordinates: [  0.600000000000000,  0.000000000000000,  0.800000000000000 ]
    mass: 137.327000
    reduced_to: 1
  - symbol: Ba # 105
    coordinates: [  0.800000000000000,  0.000000000000000,  0.800000000000000 ]
    mass: 137.327000
    reduced_to: 1
  - symbol: Ba # 106
    coordinates: [  0.000000000000000,  0.200000000000000,  0.800000000000000 ]
    mass: 137.327000
    reduced_to: 1
  - symbol: Ba # 107
    coordinates: [  0.200000000000000,  0.200000000000000,  0.800000000000000 ]
    mass: 137.327000
    reduced_to: 1
  - symbol: Ba # 108
    coordinates: [  0.400000000000000,  0.200000000000000,  0.800000000000000 ]
    mass: 137.327000
    reduced_to: 1
  - symbol: Ba # 109
    coordinates: [  0.600000000000000,  0.200000000000000,  0.800000000000000 ]
    mass: 137.327000
    reduced_to: 1
  - symbol: Ba # 110
    coordinates: [  0.800000000000000,  0.200000000000000,  0.800000000000000 ]
    mass: 137.327000
    reduced_to: 1
  - symbol: Ba # 111
    coordinates: [  0.000000000000000,  0.400000000000000,  0.800000000000000 ]
    mass: 137.327000
    reduced_to: 1
  - symbol: Ba # 112
    coordinates: [  0.200000000000000,  0.400000000000000,  0.800000000000000 ]
    mass: 137.327000
    reduced_to: 1
  - symbol: Ba # 113
    coordinates: [  0.400000000000000,  0.400000000000000,  0.800000000000000 ]
    mass: 137.327000
    reduced_to: 1
  - symbol: Ba # 114
    coordinates: [  0.600000000000000,  0.400000000000000,  0.800000000000000 ]
    mass: 137.327000
    reduced_to: 1
  - symbol: Ba # 115
    coordinates: [  0.800000000000000,  0.400000000000000,  0.800000000000000 ]
    mass: 137.327000
    reduced_to: 1
  - symbol: Ba # 116
    coordinates: [  0.000000000000000,  0.600000000000000,  0.800000000000000 ]
    mass: 137.327000
    reduced_to: 1
  - symbol: Ba # 117
    coordinates: [  0.200000000000000,  0.600000000000000,  0.800000000000000 ]
    mass: 137.327000
    reduced_to: 1
  - symbol: Ba # 118
    coordinates: [  0.400000000000000,  0.600000000000000,  0.800000000000000 ]
    mass: 137.327000
    reduced_to: 1
  - symbol: Ba # 119
    coordinates: [  0.600000000000000,  0.600000000000000,  0.800000000000000 ]
    mass: 137.327000
    reduced_to: 1
  - symbol: Ba # 120
    coordinates: [  0.800000000000000,  0.600000000000000,  0.800000000000000 ]
    mass: 137.327000
    reduced_to: 1
  - symbol: Ba # 121
    coordinates: [  0.000000000000000,  0.800000000000000,  0.800000000000000 ]
    mass: 137.327000
    reduced_to: 1
  - symbol: Ba # 122
    coordinates: [  0.200000000000000,  0.800000000000000,  0.800000000000000 ]
    mass: 137.327000
    reduced_to: 1
  - symbol: Ba # 123
    coordinates: [  0.400000000000000,  0.800000000000000,  0.800000000000000 ]
    mass: 137.327000
    reduced_to: 1
  - symbol: Ba # 124
    coordinates: [  0.600000000000000,  0.800000000000000,  0.800000000000000 ]
    mass: 137.327000
    reduced_to: 1
  - symbol: Ba # 125
    coordinates: [  0.800000000000000,  0.800000000000000,  0.800000000000000 ]
    mass: 137.327000
    reduced_to: 1
  - symbol: Ti # 126
    coordinates: [  0.100000000000000,  0.100000000000000,  0.100000000000000 ]
    mass: 47.867000
    reduced_to: 126
  - symbol: Ti # 127
    coordinates: [  0.300000000000000,  0.100000000000000,  0.100000000000000 ]
    mass: 47.867000
    reduced_to: 126
  - symbol: Ti # 128
    coordinates: [  0.500000000000000,  0.100000000000000,  0.100000000000000 ]
    mass: 47.867000
    reduced_to: 126
  - symbol: Ti # 129
    coordinates: [  0.700000000000000,  0.100000000000000,  0.100000000000000 ]
    mass: 47.867000
    reduced_to: 126
  - symbol: Ti # 130
    coordinates: [  0.900000000000000,  0.100000000000000,  0.100000000000000 ]
    mass: 47.867000
    reduced_to: 126
  - symbol: Ti # 131
    coordinates: [  0.100000000000000,  0.300000000000000,  0.100000000000000 ]
    mass: 47.867000
    reduced_to: 126
  - symbol: Ti # 132
    coordinates: [  0.300000000000000,  0.300000000000000,  0.100000000000000 ]
    mass: 47.867000
    reduced_to: 126
  - symbol: Ti # 133
    coordinates: [  0.500000000000000,  0.300000000000000,  0.100000000000000 ]
    mass: 47.867000
    reduced_to: 126
  - symbol: Ti # 134
    coordinates: [  0.700000000000000,  0.300000000000000,  0.100000000000000 ]
    mass: 47.867000
    reduced_to: 126
  - symbol: Ti # 135
    coordinates: [  0.900000000000000,  0.300000000000000,  0.100000000000000 ]
    mass: 47.867000
    reduced_to: 126
  - symbol: Ti # 136
    coordinates: [  0.100000000000000,  0.500000000000000,  0.100000000000000 ]
    mass: 47.867000
    reduced_to: 126
  - symbol: Ti # 137
    coordinates: [  0.300000000000000,  0.500000000000000,  0.100000000000000 ]
    mass: 47.867000
    reduced_to: 126
  - symbol: Ti # 138
    coordinates: [  0.500000000000000,  0.500000000000000,  0.100000000000000 ]
    mass: 47.867000
    reduced_to: 126
  - symbol: Ti # 139
    coordinates: [  0.700000000000000,  0.500000000000000,  0.100000000000000 ]
    mass: 47.867000
    reduced_to: 126
  - symbol: Ti # 140
    coordinates: [  0.900000000000000,  0.500000000000000,  0.100000000000000 ]
    mass: 47.867000
    reduced_to: 126
  - symbol: Ti # 141
    coordinates: [  0.100000000000000,  0.700000000000000,  0.100000000000000 ]
    mass: 47.867000
    reduced_to: 126
  - symbol: Ti # 142
    coordinates: [  0.300000000000000,  0.700000000000000,  0.100000000000000 ]
    mass: 47.867000
    reduced_to: 126
  - symbol: Ti # 143
    coordinates: [  0.500000000000000,  0.700000000000000,  0.100000000000000 ]
    mass: 47.867000
    reduced_to: 126
  - symbol: Ti # 144
    coordinates: [  0.700000000000000,  0.700000000000000,  0.100000000000000 ]
    mass: 47.867000
    reduced_to: 126
  - symbol: Ti # 145
    coordinates: [  0.900000000000000,  0.700000000000000,  0.100000000000000 ]
    mass: 47.867000
    reduced_to: 126
  - symbol: Ti # 146
    coordinates: [  0.100000000000000,  0.900000000000000,  0.100000000000000 ]
    mass: 47.867000
    reduced_to: 126
  - symbol: Ti # 147
    coordinates: [  0.300000000000000,  0.900000000000000,  0.100000000000000 ]
    mass: 47.867000
    reduced_to: 126
  - symbol: Ti # 148
    coordinates: [  0.500000000000000,  0.900000000000000,  0.100000000000000 ]
    mass: 47.867000
    reduced_to: 126
  - symbol: Ti # 149
    coordinates: [  0.700000000000000,  0.900000000000000,  0.100000000000000 ]
    mass: 47.867000
    reduced_to: 126
  - symbol: Ti # 150
    coordinates: [  0.900000000000000,  0.900000000000000,  0.100000000000000 ]
    mass: 47.867000
    reduced_to: 126
  - symbol: Ti # 151
    coordinates: [  0.100000000000000,  0.100000000000000,  0.300000000000000 ]
    mass: 47.867000
    reduced_to: 126
  - symbol: Ti # 152
    coordinates: [  0.300000000000000,  0.100000000000000,  0.300000000000000 ]
    mass: 47.867000
    reduced_to: 126
  - symbol: Ti # 153
    coordinates: [  0.500000000000000,  0.100000000000000,  0.300000000000000 ]
    mass: 47.867000
    reduced_to: 126
  - symbol: Ti # 154
    coordinates: [  0.700000000000000,  0.100000000000000,  0.300000000000000 ]
    mass: 47.867000
    reduced_to: 126
  - symbol: Ti # 155
    coordinates: [  0.900000000000000,  0.100000000000000,  0.300000000000000 ]
    mass: 47.867000
    reduced_to: 126
  - symbol: Ti # 156
    coordinates: [  0.100000000000000,  0.300000000000000,  0.300000000000000 ]
    mass: 47.867000
    reduced_to: 126
  - symbol: Ti # 157
    coordinates: [  0.300000000000000,  0.300000000000000,  0.300000000000000 ]
    mass: 47.867000
    reduced_to: 126
  - symbol: Ti # 158
    coordinates: [  0.500000000000000,  0.300000000000000,  0.300000000000000 ]
    mass: 47.867000
    reduced_to: 126
  - symbol: Ti # 159
    coordinates: [  0.700000000000000,  0.300000000000000,  0.300000000000000 ]
    mass: 47.867000
    reduced_to: 126
  - symbol: Ti # 160
    coordinates: [  0.900000000000000,  0.300000000000000,  0.300000000000000 ]
    mass: 47.867000
    reduced_to: 126
  - symbol: Ti # 161
    coordinates: [  0.100000000000000,  0.500000000000000,  0.300000000000000 ]
    mass: 47.867000
    reduced_to: 126
  - symbol: Ti # 162
    coordinates: [  0.300000000000000,  0.500000000000000,  0.300000000000000 ]
    mass: 47.867000
    reduced_to: 126
  - symbol: Ti # 163
    coordinates: [  0.500000000000000,  0.500000000000000,  0.300000000000000 ]
    mass: 47.867000
    reduced_to: 126
  - symbol: Ti # 164
    coordinates: [  0.700000000000000,  0.500000000000000,  0.300000000000000 ]
    mass: 47.867000
    reduced_to: 126
  - symbol: Ti # 165
    coordinates: [  0.900000000000000,  0.500000000000000,  0.300000000000000 ]
    mass: 47.867000
    reduced_to: 126
  - symbol: Ti # 166
    coordinates: [  0.100000000000000,  0.700000000000000,  0.300000000000000 ]
    mass: 47.867000
    reduced_to: 126
  - symbol: Ti # 167
    coordinates: [  0.300000000000000,  0.700000000000000,  0.300000000000000 ]
    mass: 47.867000
    reduced_to: 126
  - symbol: Ti # 168
    coordinates: [  0.500000000000000,  0.700000000000000,  0.300000000000000 ]
    mass: 47.867000
    reduced_to: 126
  - symbol: Ti # 169
    coordinates: [  0.700000000000000,  0.700000000000000,  0.300000000000000 ]
    mass: 47.867000
    reduced_to: 126
  - symbol: Ti # 170
    coordinates: [  0.900000000000000,  0.700000000000000,  0.300000000000000 ]
    mass: 47.867000
    reduced_to: 126
  - symbol: Ti # 171
    coordinates: [  0.100000000000000,  0.900000000000000,  0.300000000000000 ]
    mass: 47.867000
    reduced_to: 126
  - symbol: Ti # 172
    coordinates: [  0.300000000000000,  0.900000000000000,  0.300000000000000 ]
    mass: 47.867000
    reduced_to: 126
  - symbol: Ti # 173
    coordinates: [  0.500000000000000,  0.900000000000000,  0.300000000000000 ]
    mass: 47.867000
    reduced_to: 126
  - symbol: Ti # 174
    coordinates: [  0.700000000000000,  0.900000000000000,  0.300000000000000 ]
    mass: 47.867000
    reduced_to: 126
  - symbol: Ti # 175
    coordinates: [  0.900000000000000,  0.900000000000000,  0.300000000000000 ]
    mass: 47.867000
    reduced_to: 126
  - symbol: Ti # 176
    coordinates: [  0.100000000000000,  0.100000000000000,  0.500000000000000 ]
    mass: 47.867000
    reduced_to: 126
  - symbol: Ti # 177
    coordinates: [  0.300000000000000,  0.100000000000000,  0.500000000000000 ]
    mass: 47.867000
    reduced_to: 126
  - symbol: Ti # 178
    coordinates: [  0.500000000000000,  0.100000000000000,  0.500000000000000 ]
    mass: 47.867000
    reduced_to: 126
  - symbol: Ti # 179
    coordinates: [  0.700000000000000,  0.100000000000000,  0.500000000000000 ]
    mass: 47.867000
    reduced_to: 126
  - symbol: Ti # 180
    coordinates: [  0.900000000000000,  0.100000000000000,  0.500000000000000 ]
    mass: 47.867000
    reduced_to: 126
  - symbol: Ti # 181
    coordinates: [  0.100000000000000,  0.300000000000000,  0.500000000000000 ]
    mass: 47.867000
    reduced_to: 126
  - symbol: Ti # 182
    coordinates: [  0.300000000000000,  0.300000000000000,  0.500000000000000 ]
    mass: 47.867000
    reduced_to: 126
  - symbol: Ti # 183
    coordinates: [  0.500000000000000,  0.300000000000000,  0.500000000000000 ]
    mass: 47.867000
    reduced_to: 126
  - symbol: Ti # 184
    coordinates: [  0.700000000000000,  0.300000000000000,  0.500000000000000 ]
    mass: 47.867000
    reduced_to: 126
  - symbol: Ti # 185
    coordinates: [  0.900000000000000,  0.300000000000000,  0.500000000000000 ]
    mass: 47.867000
    reduced_to: 126
  - symbol: Ti # 186
    coordinates: [  0.100000000000000,  0.500000000000000,  0.500000000000000 ]
    mass: 47.867000
    reduced_to: 126
  - symbol: Ti # 187
    coordinates: [  0.300000000000000,  0.500000000000000,  0.500000000000000 ]
    mass: 47.867000
    reduced_to: 126
  - symbol: Ti # 188
    coordinates: [  0.500000000000000,  0.500000000000000,  0.500000000000000 ]
    mass: 47.867000
    reduced_to: 126
  - symbol: Ti # 189
    coordinates: [  0.700000000000000,  0.500000000000000,  0.500000000000000 ]
    mass: 47.867000
    reduced_to: 126
  - symbol: Ti # 190
    coordinates: [  0.900000000000000,  0.500000000000000,  0.500000000000000 ]
    mass: 47.867000
    reduced_to: 126
  - symbol: Ti # 191
    coordinates: [  0.100000000000000,  0.700000000000000,  0.500000000000000 ]
    mass: 47.867000
    reduced_to: 126
  - symbol: Ti # 192
    coordinates: [  0.300000000000000,  0.700000000000000,  0.500000000000000 ]
    mass: 47.867000
    reduced_to: 126
  - symbol: Ti # 193
    coordinates: [  0.500000000000000,  0.700000000000000,  0.500000000000000 ]
    mass: 47.867000
    reduced_to: 126
  - symbol: Ti # 194
    coordinates: [  0.700000000000000,  0.700000000000000,  0.500000000000000 ]
    mass: 47.867000
    reduced_to: 126
  - symbol: Ti # 195
    coordinates: [  0.900000000000000,  0.700000000000000,  0.500000000000000 ]
    mass: 47.867000
    reduced_to: 126