5
3

   1
    0.01000000000000     0.00000000000000     0.00000000000000
    -0.05960630238578    -0.00000000000002    -0.00000000000002
     0.03045681707372     0.00000000000012     0.00000000000012
     0.01046253239725    -0.00000000000000    -0.00000000000011
     0.01046253239725    -0.00000000000011    -0.00000000000000
     0.00822442051756    -0.00000000000000    -0.00000000000000

   2
    0.01000000000000     0.00000000000000     0.00000000000000
     0.03045712026769    -0.00000000000002    -0.00000000000002
    -0.00633898958199     0.00000000000012     0.00000000000012
     0.00660372535456    -0.00000000000000    -0.00000000000010
     0.00660372535456    -0.00000000000010    -0.00000000000000
    -0.03732558139481     0.00000000000000     0.00000000000000

   3
    0.00707106781187     0.00000000000000     0.00707106781187
     0.00739772789187    -0.00000000000002     0.00581438259950
     0.00466477066699     0.00000000000012    -0.02643342379943
    -0.04146521063578     0.00000000000000    -0.04183186372829
    -0.00182633966275    -0.00000000000011     0.03122315389802
     0.03122905173967    -0.00000000000000     0.03122775103019
