phonopy:
  version: 1.11.12
  nac_unit_conversion_factor: 14.399652
  configuration:
    dim: "1 1 1"
    atom_name: "Ba Ti O"
    qpoints: ".TRUE."
    nac: ".true."
    band: "0.0 0.0 0.0  0.0 0.5 0.0  0.5 0.5 0.0  0.0 0.0 0.0  0.5 0.5 0.5  0.5 0.5 0.0"

supercell_matrix:
- [   1,   0,   0 ]
- [   0,   1,   0 ]
- [   0,   0,   1 ]

primitive_cell:
  lattice:
  - [     3.972509145210000,     0.000000000000000,     0.000000000000000 ] # a
  - [     0.000000000000000,     3.972509145210000,     0.000000000000000 ] # b
  - [     0.000000000000000,     0.000000000000000,     3.972509145210000 ] # c
  points:
  - symbol: Ba # 1
    coordinates: [  0.000000000000000,  0.000000000000000,  0.000000000000000 ]
    mass: 137.327000
  - symbol: Ti # 2
    coordinates: [  0.500000000000000,  0.500000000000000,  0.500000000000000 ]
    mass: 47.867000
  - symbol: O  # 3
    coordinates: [  0.500000000000000,  0.500000000000000,  0.000000000000000 ]
    mass: 15.999400
  - symbol: O  # 4
    coordinates: [  0.500000000000000,  0.000000000000000,  0.500000000000000 ]
    mass: 15.999400
  - symbol: O  # 5
    coordinates: [  0.000000000000000,  0.500000000000000,  0.500000000000000 ]
    mass: 15.999400
  reciprocal_lattice: # without 2pi
  - [     0.251730068691166,     0.000000000000000,     0.000000000000000 ] # a*
  - [     0.000000000000000,     0.251730068691166,     0.000000000000000 ] # b*
  - [     0.000000000000000,     0.000000000000000,     0.251730068691166 ] # c*

unit_cell:
  lattice:
  - [     3.972509145210000,     0.000000000000000,     0.000000000000000 ] # a
  - [     0.000000000000000,     3.972509145210000,     0.000000000000000 ] # b
  - [     0.000000000000000,     0.000000000000000,     3.972509145210000 ] # c
  points:
  - symbol: Ba # 1
    coordinates: [  0.000000000000000,  0.000000000000000,  0.000000000000000 ]
    mass: 137.327000
    reduced_to: 1
  - symbol: Ti # 2
    coordinates: [  0.500000000000000,  0.500000000000000,  0.500000000000000 ]
    mass: 47.867000
    reduced_to: 2
  - symbol: O  # 3
    coordinates: [  0.500000000000000,  0.500000000000000,  0.000000000000000 ]
    mass: 15.999400
    reduced_to: 3
  - symbol: O  # 4
    coordinates: [  0.500000000000000,  0.000000000000000,  0.500000000000000 ]
    mass: 15.999400
    reduced_to: 4
  - symbol: O  # 5
    coordinates: [  0.000000000000000,  0.500000000000000,  0.500000000000000 ]
    mass: 15.999400
    reduced_to: 5

supercell:
  lattice:
  - [     3.972509145210000,     0.000000000000000,     0.000000000000000 ] # a
  - [     0.000000000000000,     3.972509145210000,     0.000000000000000 ] # b
  - [     0.000000000000000,     0.000000000000000,     3.972509145210000 ] # c
  points:
  - symbol: Ba # 1
    coordinates: [  0.000000000000000,  0.000000000000000,  0.000000000000000 ]
    mass: 137.327000
    reduced_to: 1
  - symbol: Ti # 2
    coordinates: [  0.500000000000000,  0.500000000000000,  0.500000000000000 ]
    mass: 47.867000
    reduced_to: 2
  - symbol: O  # 3
    coordinates: [  0.500000000000000,  0.500000000000000,  0.000000000000000 ]
    mass: 15.999400
    reduced_to: 3
  - symbol: O  # 4
    coordinates: [  0.500000000000000,  0.000000000000000,  0.500000000000000 ]
    mass: 15.999400
    reduced_to: 4
  - symbol: O  # 5
    coordinates: [  0.000000000000000,  0.500000000000000,  0.500000000000000 ]
    mass: 15.999400
    reduced_to: 5

born_effective_charge:
- # 1 (Ba)
  - [  1.580212010000000,  0.000000000000000,  0.000000000000000 ]
  - [  0.000000000000000,  1.580212010000000,  0.000000000000000 ]
  - [  0.000000000000000,  0.000000000000000,  1.580212010000000 ]
- # 2 (Ti)
  - [  4.189033400000000,  0.000000000000000,  0.000000000000000 ]
  - [  0.000000000000000,  4.189033400000000,  0.000000000000000 ]
  - [  0.000000000000000,  0.000000000000000,  4.189033400000000 ]
- # 3 (O)
  - [ -1.040892320000000,  0.000000000000000,  0.000000000000000 ]
  - [  0.000000000000000, -1.040892320000000,  0.000000000000000 ]
  - [  0.000000000000000,  0.000000000000000, -3.687460855600000 ]
- # 4 (O)
  - [ -1.040892320000000,  0.000000000000000,  0.000000000000000 ]
  - [  0.000000000000000, -3.687460855600000,  0.000000000000000 ]
  - [  0.000000000000000,  0.000000000000000, -1.040892320000000 ]
- # 5 (O)
  - [ -3.687460855600000,  0.000000000000000,  0.000000000000000 ]
  - [  0.000000000000000, -1.040892320000000,  0.000000000000000 ]
  - [  0.000000000000000,  0.000000000000000, -1.040892320000000 ]

dielectric_constant:
  - [  3.124646526700000,  0.000000000000000,  0.000000000000000 ]
  - [  0.000000000000000,  3.124646526800000,  0.000000000000000 ]
  - [  0.000000000000000,  0.000000000000000,  3.124646527500000 ]
