phonopy:
  version: 1.11.12
  configuration:
    dim: "1 1 1"
    create_displacements: ".true."

supercell_matrix:
- [   1,   0,   0 ]
- [   0,   1,   0 ]
- [   0,   0,   1 ]

primitive_cell:
  lattice:
  - [     3.972509145210000,     0.000000000000000,     0.000000000000000 ] # a
  - [     0.000000000000000,     3.972509145210000,     0.000000000000000 ] # b
  - [     0.000000000000000,     0.000000000000000,     3.972509145210000 ] # c
  points:
  - symbol: Ba # 1
    coordinates: [  0.000000000000000,  0.000000000000000,  0.000000000000000 ]
    mass: 137.327000
  - symbol: Ti # 2
    coordinates: [  0.500000000000000,  0.500000000000000,  0.500000000000000 ]
    mass: 47.867000
  - symbol: O  # 3
    coordinates: [  0.500000000000000,  0.500000000000000,  0.000000000000000 ]
    mass: 15.999400
  - symbol: O  # 4
    coordinates: [  0.500000000000000,  0.000000000000000,  0.500000000000000 ]
    mass: 15.999400
  - symbol: O  # 5
    coordinates: [  0.000000000000000,  0.500000000000000,  0.500000000000000 ]
    mass: 15.999400
  reciprocal_lattice: # without 2pi
  - [     0.251730068691166,     0.000000000000000,     0.000000000000000 ] # a*
  - [     0.000000000000000,     0.251730068691166,     0.000000000000000 ] # b*
  - [     0.000000000000000,     0.000000000000000,     0.251730068691166 ] # c*

unit_cell:
  lattice:
  - [     3.972509145210000,     0.000000000000000,     0.000000000000000 ] # a
  - [     0.000000000000000,     3.972509145210000,     0.000000000000000 ] # b
  - [     0.000000000000000,     0.000000000000000,     3.972509145210000 ] # c
  points:
  - symbol: Ba # 1
    coordinates: [  0.000000000000000,  0.000000000000000,  0.000000000000000 ]
    mass: 137.327000
    reduced_to: 1
  - symbol: Ti # 2
    coordinates: [  0.500000000000000,  0.500000000000000,  0.500000000000000 ]
    mass: 47.867000
    reduced_to: 2
  - symbol: O  # 3
    coordinates: [  0.500000000000000,  0.500000000000000,  0.000000000000000 ]
    mass: 15.999400
    reduced_to: 3
  - symbol: O  # 4
    coordinates: [  0.500000000000000,  0.000000000000000,  0.500000000000000 ]
    mass: 15.999400
    reduced_to: 4
  - symbol: O  # 5
    coordinates: [  0.000000000000000,  0.500000000000000,  0.500000000000000 ]
    mass: 15.999400
    reduced_to: 5

supercell:
  lattice:
  - [     3.972509145210000,     0.000000000000000,     0.000000000000000 ] # a
  - [     0.000000000000000,     3.972509145210000,     0.000000000000000 ] # b
  - [     0.000000000000000,     0.000000000000000,     3.972509145210000 ] # c
  points:
  - symbol: Ba # 1
    coordinates: [  0.000000000000000,  0.000000000000000,  0.000000000000000 ]
    mass: 137.327000
    reduced_to: 1
  - symbol: Ti # 2
    coordinates: [  0.500000000000000,  0.500000000000000,  0.500000000000000 ]
    mass: 47.867000
    reduced_to: 2
  - symbol: O  # 3
    coordinates: [  0.500000000000000,  0.500000000000000,  0.000000000000000 ]
    mass: 15.999400
    reduced_to: 3
  - symbol: O  # 4
    coordinates: [  0.500000000000000,  0.000000000000000,  0.500000000000000 ]
    mass: 15.999400
    reduced_to: 4
  - symbol: O  # 5
    coordinates: [  0.000000000000000,  0.500000000000000,  0.500000000000000 ]
    mass: 15.999400
    reduced_to: 5
