nqpoint: 151    
natom:   5      
reciprocal_lattice:
- [   0.25173007,   0.00000000,   0.00000000 ] # a*
- [   0.00000000,   0.25173007,   0.00000000 ] # b*
- [   0.00000000,   0.00000000,   0.25173007 ] # c*
phonon:
- q-position: [    0.0000000,    0.0000000,    0.0000000 ]
  band:
  - # 1
    frequency:   -4.4650805561
  - # 2
    frequency:   -4.4650805561
  - # 3
    frequency:   -4.4650805561
  - # 4
    frequency:    0.0030564654
  - # 5
    frequency:    0.0030564654
  - # 6
    frequency:    0.0030564654
  - # 7
    frequency:    5.0800035483
  - # 8
    frequency:    5.0800035483
  - # 9
    frequency:    5.0800035483
  - # 10
    frequency:    9.2537340682
  - # 11
    frequency:    9.2537340682
  - # 12
    frequency:    9.2537340682
  - # 13
    frequency:   13.8515966235
  - # 14
    frequency:   13.8515966235
  - # 15
    frequency:   13.8515966235

- q-position: [    0.0000000,    0.0166667,    0.0000000 ]
  band:
  - # 1
    frequency:   -4.4617907892
  - # 2
    frequency:   -4.4617907892
  - # 3
    frequency:    0.1671583988
  - # 4
    frequency:    0.1671583988
  - # 5
    frequency:    0.2027855201
  - # 6
    frequency:    4.9227602703
  - # 7
    frequency:    5.0804849050
  - # 8
    frequency:    5.0804849050
  - # 9
    frequency:    9.2537340682
  - # 10
    frequency:    9.2540265144
  - # 11
    frequency:    9.2540265144
  - # 12
    frequency:   12.6370964957
  - # 13
    frequency:   13.8491561391
  - # 14
    frequency:   13.8491561391
  - # 15
    frequency:   17.9747302919

- q-position: [    0.0000000,    0.0333333,    0.0000000 ]
  band:
  - # 1
    frequency:   -4.4519730367
  - # 2
    frequency:   -4.4519730367
  - # 3
    frequency:    0.3341551547
  - # 4
    frequency:    0.3341551547
  - # 5
    frequency:    0.4045453596
  - # 6
    frequency:    4.9341271283
  - # 7
    frequency:    5.0819465316
  - # 8
    frequency:    5.0819465316
  - # 9
    frequency:    9.2537340682
  - # 10
    frequency:    9.2549065212
  - # 11
    frequency:    9.2549065212
  - # 12
    frequency:   12.6381529682
  - # 13
    frequency:   13.8418478980
  - # 14
    frequency:   13.8418478980
  - # 15
    frequency:   17.9674608567

- q-position: [    0.0000000,    0.0500000,    0.0000000 ]
  band:
  - # 1
    frequency:   -4.4357811771
  - # 2
    frequency:   -4.4357811771
  - # 3
    frequency:    0.5009039486
  - # 4
    frequency:    0.5009039486
  - # 5
    frequency:    0.6042528459
  - # 6
    frequency:    4.9530483340
  - # 7
    frequency:    5.0844410785
  - # 8
    frequency:    5.0844410785
  - # 9
    frequency:    9.2537340682
  - # 10
    frequency:    9.2563820361
  - # 11
    frequency:    9.2563820361
  - # 12
    frequency:   12.6399280471
  - # 13
    frequency:   13.8297116620
  - # 14
    frequency:   13.8297116620
  - # 15
    frequency:   17.9553957689

- q-position: [    0.0000000,    0.0666667,    0.0000000 ]
  band:
  - # 1
    frequency:   -4.4134690292
  - # 2
    frequency:   -4.4134690292
  - # 3
    frequency:    0.6672247505
  - # 4
    frequency:    0.6672247505
  - # 5
    frequency:    0.8009031842
  - # 6
    frequency:    4.9794829375
  - # 7
    frequency:    5.0880561919
  - # 8
    frequency:    5.0880561919
  - # 9
    frequency:    9.2537340682
  - # 10
    frequency:    9.2584661055
  - # 11
    frequency:    9.2584661055
  - # 12
    frequency:   12.6424426088
  - # 13
    frequency:   13.8128141163
  - # 14
    frequency:   13.8128141163
  - # 15
    frequency:   17.9386113231

- q-position: [    0.0000000,    0.0833333,    0.0000000 ]
  band:
  - # 1
    frequency:   -4.3853860892
  - # 2
    frequency:   -4.3853860892
  - # 3
    frequency:    0.8328903270
  - # 4
    frequency:    0.8328903270
  - # 5
    frequency:    0.9935176631
  - # 6
    frequency:    5.0133623745
  - # 7
    frequency:    5.0929142029
  - # 8
    frequency:    5.0929142029
  - # 9
    frequency:    9.2537340682
  - # 10
    frequency:    9.2611765621
  - # 11
    frequency:    9.2611765621
  - # 12
    frequency:   12.6457247436
  - # 13
    frequency:   13.7912494978
  - # 14
    frequency:   13.7912494978
  - # 15
    frequency:   17.9172150073

- q-position: [    0.0000000,    0.1000000,    0.0000000 ]
  band:
  - # 1
    frequency:   -4.3519710505
  - # 2
    frequency:   -4.3519710505
  - # 3
    frequency:    0.9976052001
  - # 4
    frequency:    0.9976052001
  - # 5
    frequency:    1.1811564163
  - # 6
    frequency:    5.0545793140
  - # 7
    frequency:    5.0991713740
  - # 8
    frequency:    5.0991713740
  - # 9
    frequency:    9.2537340682
  - # 10
    frequency:    9.2645355565
  - # 11
    frequency:    9.2645355565
  - # 12
    frequency:   12.6498085849
  - # 13
    frequency:   13.7651404772
  - # 14
    frequency:   13.7651404772
  - # 15
    frequency:   17.8913461707

- q-position: [    0.0000000,    0.1166667,    0.0000000 ]
  band:
  - # 1
    frequency:   -4.3137427663
  - # 2
    frequency:   -4.3137427663
  - # 3
    frequency:    1.1609903553
  - # 4
    frequency:    1.1609903553
  - # 5
    frequency:    1.3629330902
  - # 6
    frequency:    5.1029737003
  - # 7
    frequency:    5.1070163497
  - # 8
    frequency:    5.1070163497
  - # 9
    frequency:    9.2537340682
  - # 10
    frequency:    9.2685689021
  - # 11
    frequency:    9.2685689021
  - # 12
    frequency:   12.6547327556
  - # 13
    frequency:   13.7346393039
  - # 14
    frequency:   13.7346393039
  - # 15
    frequency:   17.8611768717

- q-position: [    0.0000000,    0.1333333,    0.0000000 ]
  band:
  - # 1
    frequency:   -4.2712884530
  - # 2
    frequency:   -4.2712884530
  - # 3
    frequency:    1.3225714365
  - # 4
    frequency:    1.3225714365
  - # 5
    frequency:    1.5380314306
  - # 6
    frequency:    5.1166673223
  - # 7
    frequency:    5.1166673223
  - # 8
    frequency:    5.1583166712
  - # 9
    frequency:    9.2537340682
  - # 10
    frequency:    9.2733051928
  - # 11
    frequency:    9.2733051928
  - # 12
    frequency:   12.6605384031
  - # 13
    frequency:   13.6999292116
  - # 14
    frequency:   13.6999292116
  - # 15
    frequency:   17.8269128941

- q-position: [    0.0000000,    0.1500000,    0.0000000 ]
  band:
  - # 1
    frequency:   -4.2252492057
  - # 2
    frequency:   -4.2252492057
  - # 3
    frequency:    1.4817716094
  - # 4
    frequency:    1.4817716094
  - # 5
    frequency:    1.7057229241
  - # 6
    frequency:    5.1283672708
  - # 7
    frequency:    5.1283672708
  - # 8
    frequency:    5.2202935308
  - # 9
    frequency:    9.2537340682
  - # 10
    frequency:    9.2787746419
  - # 11
    frequency:    9.2787746419
  - # 12
    frequency:   12.6672667882
  - # 13
    frequency:   13.6612260897
  - # 14
    frequency:   13.6612260897
  - # 15
    frequency:   17.7887949122

- q-position: [    0.0000000,    0.1666667,    0.0000000 ]
  band:
  - # 1
    frequency:   -4.1763032762
  - # 2
    frequency:   -4.1763032762
  - # 3
    frequency:    1.6379107976
  - # 4
    frequency:    1.6379107976
  - # 5
    frequency:    1.8653840069
  - # 6
    frequency:    5.1423764823
  - # 7
    frequency:    5.1423764823
  - # 8
    frequency:    5.2884874710
  - # 9
    frequency:    9.2537340682
  - # 10
    frequency:    9.2850075798
  - # 11
    frequency:    9.2850075798
  - # 12
    frequency:   12.6749564021
  - # 13
    frequency:   13.6187804108
  - # 14
    frequency:   13.6187804108
  - # 15
    frequency:   17.7470997781

- q-position: [    0.0000000,    0.1833333,    0.0000000 ]
  band:
  - # 1
    frequency:   -4.1251479838
  - # 2
    frequency:   -4.1251479838
  - # 3
    frequency:    1.7902130278
  - # 4
    frequency:    1.7902130278
  - # 5
    frequency:    2.0165108881
  - # 6
    frequency:    5.1589614668
  - # 7
    frequency:    5.1589614668
  - # 8
    frequency:    5.3623661380
  - # 9
    frequency:    9.2537340682
  - # 10
    frequency:    9.2920325418
  - # 11
    frequency:    9.2920325418
  - # 12
    frequency:   12.6836395907
  - # 13
    frequency:   13.5728794025
  - # 14
    frequency:   13.5728794025
  - # 15
    frequency:   17.7021418909

- q-position: [    0.0000000,    0.2000000,    0.0000000 ]
  band:
  - # 1
    frequency:   -4.0724814854
  - # 2
    frequency:   -4.0724814854
  - # 3
    frequency:    1.9378232935
  - # 4
    frequency:    1.9378232935
  - # 5
    frequency:    2.1587298859
  - # 6
    frequency:    5.1783793912
  - # 7
    frequency:    5.1783793912
  - # 8
    frequency:    5.4412732473
  - # 9
    frequency:    9.2537340682
  - # 10
    frequency:    9.2998738703
  - # 11
    frequency:    9.2998738703
  - # 12
    frequency:   12.6933386863
  - # 13
    frequency:   13.5238494319
  - # 14
    frequency:   13.5238494319
  - # 15
    frequency:   17.6542745893

- q-position: [    0.0000000,    0.2166667,    0.0000000 ]
  band:
  - # 1
    frequency:   -4.0189858085
  - # 2
    frequency:   -4.0189858085
  - # 3
    frequency:    2.0798346256
  - # 4
    frequency:    2.0798346256
  - # 5
    frequency:    2.2918014577
  - # 6
    frequency:    5.2008573886
  - # 7
    frequency:    5.2008573886
  - # 8
    frequency:    5.5244271325
  - # 9
    frequency:    9.2537340682
  - # 10
    frequency:    9.3085487558
  - # 11
    frequency:    9.3085487558
  - # 12
    frequency:   12.7040616739
  - # 13
    frequency:   13.4720585505
  - # 14
    frequency:   13.4720585505
  - # 15
    frequency:   17.6038914867

- q-position: [    0.0000000,    0.2333333,    0.0000000 ]
  band:
  - # 1
    frequency:   -3.9653124903
  - # 2
    frequency:   -3.9653124903
  - # 3
    frequency:    2.2153249500
  - # 4
    frequency:    2.2153249500
  - # 5
    frequency:    2.4156168518
  - # 6
    frequency:    5.2265666553
  - # 7
    frequency:    5.2265666553
  - # 8
    frequency:    5.6109273357
  - # 9
    frequency:    9.2537340682
  - # 10
    frequency:    9.3180636582
  - # 11
    frequency:    9.3180636582
  - # 12
    frequency:   12.7157974601
  - # 13
    frequency:   13.4179191166
  - # 14
    frequency:   13.4179191166
  - # 15
    frequency:   17.5514276390

- q-position: [    0.0000000,    0.2500000,    0.0000000 ]
  band:
  - # 1
    frequency:   -3.9120718334
  - # 2
    frequency:   -3.9120718334
  - # 3
    frequency:    2.3434018559
  - # 4
    frequency:    2.3434018559
  - # 5
    frequency:    2.5301873708
  - # 6
    frequency:    5.2555922101
  - # 7
    frequency:    5.2555922101
  - # 8
    frequency:    5.6997692621
  - # 9
    frequency:    9.2537340682
  - # 10
    frequency:    9.3284100707
  - # 11
    frequency:    9.3284100707
  - # 12
    frequency:   12.7285108699
  - # 13
    frequency:   13.3618903637
  - # 14
    frequency:   13.3618903637
  - # 15
    frequency:   17.4973603957

- q-position: [    0.0000000,    0.2666667,    0.0000000 ]
  band:
  - # 1
    frequency:   -3.8598262749
  - # 2
    frequency:   -3.8598262749
  - # 3
    frequency:    2.4632517642
  - # 4
    frequency:    2.4632517642
  - # 5
    frequency:    2.6356273591
  - # 6
    frequency:    5.2879005236
  - # 7
    frequency:    5.2879005236
  - # 8
    frequency:    5.7898657633
  - # 9
    frequency:    9.2537340682
  - # 10
    frequency:    9.3395596495
  - # 11
    frequency:    9.3395596495
  - # 12
    frequency:   12.7421375654
  - # 13
    frequency:   13.3044807291
  - # 14
    frequency:   13.3044807291
  - # 15
    frequency:   17.4422097420

- q-position: [    0.0000000,    0.2833333,    0.0000000 ]
  band:
  - # 1
    frequency:   -3.8090877792
  - # 2
    frequency:   -3.8090877792
  - # 3
    frequency:    2.5741884349
  - # 4
    frequency:    2.5741884349
  - # 5
    frequency:    2.7321329029
  - # 6
    frequency:    5.3233087100
  - # 7
    frequency:    5.3233087100
  - # 8
    frequency:    5.8800736114
  - # 9
    frequency:    9.2537340682
  - # 10
    frequency:    9.3514588094
  - # 11
    frequency:    9.3514588094
  - # 12
    frequency:   12.7565791670
  - # 13
    frequency:   13.2462496719
  - # 14
    frequency:   13.2462496719
  - # 15
    frequency:   17.3865378852

- q-position: [    0.0000000,    0.3000000,    0.0000000 ]
  band:
  - # 1
    frequency:   -3.7603186451
  - # 2
    frequency:   -3.7603186451
  - # 3
    frequency:    2.6756947454
  - # 4
    frequency:    2.6756947454
  - # 5
    frequency:    2.8199586566
  - # 6
    frequency:    5.3614601603
  - # 7
    frequency:    5.3614601603
  - # 8
    frequency:    5.9692223581
  - # 9
    frequency:    9.2537340682
  - # 10
    frequency:    9.3640230100
  - # 11
    frequency:    9.3640230100
  - # 12
    frequency:   12.7716989515
  - # 13
    frequency:   13.1878086203
  - # 14
    frequency:   13.1878086203
  - # 15
    frequency:   17.3309477831

- q-position: [    0.0000000,    0.3166667,    0.0000000 ]
  band:
  - # 1
    frequency:   -3.7139347648
  - # 2
    frequency:   -3.7139347648
  - # 3
    frequency:    2.7674516832
  - # 4
    frequency:    2.7674516832
  - # 5
    frequency:    2.8993951308
  - # 6
    frequency:    5.4018117994
  - # 7
    frequency:    5.4018117994
  - # 8
    frequency:    6.0561431204
  - # 9
    frequency:    9.2537340682
  - # 10
    frequency:    9.3771311197
  - # 11
    frequency:    9.3771311197
  - # 12
    frequency:   12.7873185988
  - # 13
    frequency:   13.1298205667
  - # 14
    frequency:   13.1298205667
  - # 15
    frequency:   17.2760802552

- q-position: [    0.0000000,    0.3333333,    0.0000000 ]
  band:
  - # 1
    frequency:   -3.6703102345
  - # 2
    frequency:   -3.6703102345
  - # 3
    frequency:    2.8493498903
  - # 4
    frequency:    2.8493498903
  - # 5
    frequency:    2.9707482929
  - # 6
    frequency:    5.4436371322
  - # 7
    frequency:    5.4436371322
  - # 8
    frequency:    6.1396952791
  - # 9
    frequency:    9.2537340682
  - # 10
    frequency:    9.3906204400
  - # 11
    frequency:    9.3906204400
  - # 12
    frequency:   12.8032165419
  - # 13
    frequency:   13.0729977125
  - # 14
    frequency:   13.0729977125
  - # 15
    frequency:   17.2226092737

- q-position: [    0.0000000,    0.3500000,    0.0000000 ]
  band:
  - # 1
    frequency:   -3.6297822673
  - # 2
    frequency:   -3.6297822673
  - # 3
    frequency:    2.9214817681
  - # 4
    frequency:    2.9214817681
  - # 5
    frequency:    3.0343226477
  - # 6
    frequency:    5.4860468844
  - # 7
    frequency:    5.4860468844
  - # 8
    frequency:    6.2187897352
  - # 9
    frequency:    9.2537340682
  - # 10
    frequency:    9.4042831873
  - # 11
    frequency:    9.4042831873
  - # 12
    frequency:   12.8191285256
  - # 13
    frequency:   13.0180964487
  - # 14
    frequency:   13.0180964487
  - # 15
    frequency:   17.1712350079

- q-position: [    0.0000000,    0.3666667,    0.0000000 ]
  band:
  - # 1
    frequency:   -3.5926555550
  - # 2
    frequency:   -3.5926555550
  - # 3
    frequency:    2.9841154688
  - # 4
    frequency:    2.9841154688
  - # 5
    frequency:    3.0904082667
  - # 6
    frequency:    5.5280259463
  - # 7
    frequency:    5.5280259463
  - # 8
    frequency:    6.2924080496
  - # 9
    frequency:    9.2537340682
  - # 10
    frequency:    9.4178654177
  - # 11
    frequency:    9.4178654177
  - # 12
    frequency:   12.8347509746
  - # 13
    frequency:   12.9659088830
  - # 14
    frequency:   12.9659088830
  - # 15
    frequency:   17.1226742261

- q-position: [    0.0000000,    0.3833333,    0.0000000 ]
  band:
  - # 1
    frequency:   -3.5592054955
  - # 2
    frequency:   -3.5592054955
  - # 3
    frequency:    3.0376550661
  - # 4
    frequency:    3.0376550661
  - # 5
    frequency:    3.1392716653
  - # 6
    frequency:    5.5684824534
  - # 7
    frequency:    5.5684824534
  - # 8
    frequency:    6.3596173668
  - # 9
    frequency:    9.2537340682
  - # 10
    frequency:    9.4310694871
  - # 11
    frequency:    9.4310694871
  - # 12
    frequency:   12.8497476749
  - # 13
    frequency:   12.9172501409
  - # 14
    frequency:   12.9172501409
  - # 15
    frequency:   17.0776477480

- q-position: [    0.0000000,    0.4000000,    0.0000000 ]
  band:
  - # 1
    frequency:   -3.5296799887
  - # 2
    frequency:   -3.5296799887
  - # 3
    frequency:    3.0825929417
  - # 4
    frequency:    3.0825929417
  - # 5
    frequency:    3.1811500473
  - # 6
    frequency:    5.6063031101
  - # 7
    frequency:    5.6063031101
  - # 8
    frequency:    6.4195814210
  - # 9
    frequency:    9.2537340682
  - # 10
    frequency:    9.4435610793
  - # 11
    frequency:    9.4435610793
  - # 12
    frequency:   12.8637600692
  - # 13
    frequency:   12.8729408219
  - # 14
    frequency:   12.8729408219
  - # 15
    frequency:   17.0368648287

- q-position: [    0.0000000,    0.4166667,    0.0000000 ]
  band:
  - # 1
    frequency:   -3.5042997670
  - # 2
    frequency:   -3.5042997670
  - # 3
    frequency:    3.1194605764
  - # 4
    frequency:    3.1194605764
  - # 5
    frequency:    3.2162482390
  - # 6
    frequency:    5.6404086776
  - # 7
    frequency:    5.6404086776
  - # 8
    frequency:    6.4715681649
  - # 9
    frequency:    9.2537340682
  - # 10
    frequency:    9.4549815295
  - # 11
    frequency:    9.4549815295
  - # 12
    frequency:   12.8337843617
  - # 13
    frequency:   12.8337843617
  - # 14
    frequency:   12.8764211338
  - # 15
    frequency:   17.0010046495

- q-position: [    0.0000000,    0.4333333,    0.0000000 ]
  band:
  - # 1
    frequency:   -3.4832574404
  - # 2
    frequency:   -3.4832574404
  - # 3
    frequency:    3.1487827805
  - # 4
    frequency:    3.1487827805
  - # 5
    frequency:    3.2447375867
  - # 6
    frequency:    5.6698046739
  - # 7
    frequency:    5.6698046739
  - # 8
    frequency:    6.5149546622
  - # 9
    frequency:    9.2537340682
  - # 10
    frequency:    9.4649655581
  - # 11
    frequency:    9.4649655581
  - # 12
    frequency:   12.8005396600
  - # 13
    frequency:   12.8005396600
  - # 14
    frequency:   12.8873723554
  - # 15
    frequency:   16.9706954798

- q-position: [    0.0000000,    0.4500000,    0.0000000 ]
  band:
  - # 1
    frequency:   -3.4667155904
  - # 2
    frequency:   -3.4667155904
  - # 3
    frequency:    3.1710385801
  - # 4
    frequency:    3.1710385801
  - # 5
    frequency:    3.2667561407
  - # 6
    frequency:    5.6936241600
  - # 7
    frequency:    5.6936241600
  - # 8
    frequency:    6.5492299036
  - # 9
    frequency:    9.2537340682
  - # 10
    frequency:    9.4731636285
  - # 11
    frequency:    9.4731636285
  - # 12
    frequency:   12.7738901806
  - # 13
    frequency:   12.7738901806
  - # 14
    frequency:   12.8962828063
  - # 15
    frequency:   16.9464925374

- q-position: [    0.0000000,    0.4666667,    0.0000000 ]
  band:
  - # 1
    frequency:   -3.4548043387
  - # 2
    frequency:   -3.4548043387
  - # 3
    frequency:    3.1866301763
  - # 4
    frequency:    3.1866301763
  - # 5
    frequency:    3.2824095450
  - # 6
    frequency:    5.7111613238
  - # 7
    frequency:    5.7111613238
  - # 8
    frequency:    6.5739961635
  - # 9
    frequency:    9.2537340682
  - # 10
    frequency:    9.4792670683
  - # 11
    frequency:    9.4792670683
  - # 12
    frequency:   12.7544116903
  - # 13
    frequency:   12.7544116903
  - # 14
    frequency:   12.9028688051
  - # 15
    frequency:   16.9288560208

- q-position: [    0.0000000,    0.4833333,    0.0000000 ]
  band:
  - # 1
    frequency:   -3.4476188473
  - # 2
    frequency:   -3.4476188473
  - # 3
    frequency:    3.1958600498
  - # 4
    frequency:    3.1958600498
  - # 5
    frequency:    3.2917721740
  - # 6
    frequency:    5.7218959809
  - # 7
    frequency:    5.7218959809
  - # 8
    frequency:    6.5889694433
  - # 9
    frequency:    9.2537340682
  - # 10
    frequency:    9.4830330932
  - # 11
    frequency:    9.4830330932
  - # 12
    frequency:   12.7425416712
  - # 13
    frequency:   12.7425416712
  - # 14
    frequency:   12.9069122716
  - # 15
    frequency:   16.9181311260

- q-position: [    0.0000000,    0.5000000,    0.0000000 ]
  band:
  - # 1
    frequency:   -3.4452171763
  - # 2
    frequency:   -3.4452171763
  - # 3
    frequency:    3.1989155417
  - # 4
    frequency:    3.1989155417
  - # 5
    frequency:    3.2948881733
  - # 6
    frequency:    5.7255098903
  - # 7
    frequency:    5.7255098903
  - # 8
    frequency:    6.5939794498
  - # 9
    frequency:    9.2537340682
  - # 10
    frequency:    9.4843062767
  - # 11
    frequency:    9.4843062767
  - # 12
    frequency:   12.7385539188
  - # 13
    frequency:   12.7385539188
  - # 14
    frequency:   12.9082757492
  - # 15
    frequency:   16.9145319674

- q-position: [    0.0166667,    0.5000000,    0.0000000 ]
  band:
  - # 1
    frequency:   -3.4428533403
  - # 2
    frequency:   -3.4318657500
  - # 3
    frequency:    3.1990753480
  - # 4
    frequency:    3.1991114359
  - # 5
    frequency:    3.2965552884
  - # 6
    frequency:    5.7251448587
  - # 7
    frequency:    5.7320680014
  - # 8
    frequency:    6.6047764394
  - # 9
    frequency:    9.2551579665
  - # 10
    frequency:    9.4842523750
  - # 11
    frequency:    9.4842555498
  - # 12
    frequency:   12.7095855169
  - # 13
    frequency:   12.7349650020
  - # 14
    frequency:   12.9344603049
  - # 15
    frequency:   16.9084039047

- q-position: [    0.0333333,    0.5000000,    0.0000000 ]
  band:
  - # 1
    frequency:   -3.4358106349
  - # 2
    frequency:   -3.3919375741
  - # 3
    frequency:    3.1995529928
  - # 4
    frequency:    3.1996956457
  - # 5
    frequency:    3.3015319288
  - # 6
    frequency:    5.7246732177
  - # 7
    frequency:    5.7517095671
  - # 8
    frequency:    6.6365163509
  - # 9
    frequency:    9.2594210145
  - # 10
    frequency:    9.4840912501
  - # 11
    frequency:    9.4841039858
  - # 12
    frequency:   12.6480946022
  - # 13
    frequency:   12.7242025223
  - # 14
    frequency:   12.9876336817
  - # 15
    frequency:   16.8900875317

- q-position: [    0.0500000,    0.5000000,    0.0000000 ]
  band:
  - # 1
    frequency:   -3.4242337483
  - # 2
    frequency:   -3.3258120946
  - # 3
    frequency:    3.2003431746
  - # 4
    frequency:    3.2006578555
  - # 5
    frequency:    3.3097446075
  - # 6
    frequency:    5.7257471803
  - # 7
    frequency:    5.7843358291
  - # 8
    frequency:    6.6874625647
  - # 9
    frequency:    9.2664967122
  - # 10
    frequency:    9.4838246377
  - # 11
    frequency:    9.4838534255
  - # 12
    frequency:   12.5757971364
  - # 13
    frequency:   12.7062793072
  - # 14
    frequency:   13.0461823649
  - # 15
    frequency:   16.8597844193

- q-position: [    0.0666667,    0.5000000,    0.0000000 ]
  band:
  - # 1
    frequency:   -3.4083581591
  - # 2
    frequency:   -3.2341244587
  - # 3
    frequency:    3.2014371256
  - # 4
    frequency:    3.2019812177
  - # 5
    frequency:    3.3210729002
  - # 6
    frequency:    5.7305515596
  - # 7
    frequency:    5.8297807925
  - # 8
    frequency:    6.7552831613
  - # 9
    frequency:    9.2763390134
  - # 10
    frequency:    9.4834554106
  - # 11
    frequency:    9.4835069052
  - # 12
    frequency:   12.4991117924
  - # 13
    frequency:   12.6812167912
  - # 14
    frequency:   13.1038599438
  - # 15
    frequency:   16.8178243714

- q-position: [    0.0833333,    0.5000000,    0.0000000 ]
  band:
  - # 1
    frequency:   -3.3885018649
  - # 2
    frequency:   -3.1177656443
  - # 3
    frequency:    3.2028227126
  - # 4
    frequency:    3.2036428703
  - # 5
    frequency:    3.3353523915
  - # 6
    frequency:    5.7413208876
  - # 7
    frequency:    5.8878095241
  - # 8
    frequency:    6.8375205429
  - # 9
    frequency:    9.2888794604
  - # 10
    frequency:    9.4829875496
  - # 11
    frequency:    9.4830686115
  - # 12
    frequency:   12.4203920465
  - # 13
    frequency:   12.6490451003
  - # 14
    frequency:   13.1585574055
  - # 15
    frequency:   16.7646565485

- q-position: [    0.1000000,    0.5000000,    0.0000000 ]
  band:
  - # 1
    frequency:   -3.3650542817
  - # 2
    frequency:   -2.9778737187
  - # 3
    frequency:    3.2044845771
  - # 4
    frequency:    3.2056146406
  - # 5
    frequency:    3.3523785681
  - # 6
    frequency:    5.7600268491
  - # 7
    frequency:    5.9581165018
  - # 8
    frequency:    6.9318791711
  - # 9
    frequency:    9.3040230933
  - # 10
    frequency:    9.4824261025
  - # 11
    frequency:    9.4825438194
  - # 12
    frequency:   12.3409217332
  - # 13
    frequency:   12.6098031754
  - # 14
    frequency:   13.2093111251
  - # 15
    frequency:   16.7008376983

- q-position: [    0.1166667,    0.5000000,    0.0000000 ]
  band:
  - # 1
    frequency:   -3.3384628176
  - # 2
    frequency:   -2.8158051553
  - # 3
    frequency:    3.2064043114
  - # 4
    frequency:    3.2078638917
  - # 5
    frequency:    3.3719114758
  - # 6
    frequency:    5.7882243387
  - # 7
    frequency:    6.0403246050
  - # 8
    frequency:    7.0363392319
  - # 9
    frequency:    9.3216430833
  - # 10
    frequency:    9.4817771323
  - # 11
    frequency:    9.4819388185
  - # 12
    frequency:   12.2616390812
  - # 13
    frequency:   12.5635389403
  - # 14
    frequency:   13.2555837048
  - # 15
    frequency:   16.6270180823

- q-position: [    0.1333333,    0.5000000,    0.0000000 ]
  band:
  - # 1
    frequency:   -3.3092177811
  - # 2
    frequency:   -2.6330691146
  - # 3
    frequency:    3.2085606694
  - # 4
    frequency:    3.2103544599
  - # 5
    frequency:    3.3936809395
  - # 6
    frequency:    5.8269834395
  - # 7
    frequency:    6.1339853336
  - # 8
    frequency:    7.1491674426
  - # 9
    frequency:    9.3415740745
  - # 10
    frequency:    9.4810476544
  - # 11
    frequency:    9.4812608276
  - # 12
    frequency:   12.1833565395
  - # 13
    frequency:   12.5103095207
  - # 14
    frequency:   13.2970505100
  - # 15
    frequency:   16.5439257693

- q-position: [    0.1500000,    0.5000000,    0.0000000 ]
  band:
  - # 1
    frequency:   -3.2778364143
  - # 2
    frequency:   -2.4311991830
  - # 3
    frequency:    3.2109298089
  - # 4
    frequency:    3.2130476285
  - # 5
    frequency:    3.4173921418
  - # 6
    frequency:    5.8768515416
  - # 7
    frequency:    6.2385807324
  - # 8
    frequency:    7.2688840336
  - # 9
    frequency:    9.3636042877
  - # 10
    frequency:    9.4802455641
  - # 11
    frequency:    9.4805179017
  - # 12
    frequency:   12.1068429286
  - # 13
    frequency:   12.4501815271
  - # 14
    frequency:   13.3335254636
  - # 15
    frequency:   16.4523499931

- q-position: [    0.1666667,    0.5000000,    0.0000000 ]
  band:
  - # 1
    frequency:   -3.2448469131
  - # 2
    frequency:   -2.2115231127
  - # 3
    frequency:    3.2134855629
  - # 4
    frequency:    3.2159030925
  - # 5
    frequency:    3.4427313551
  - # 6
    frequency:    5.9378246644
  - # 7
    frequency:    6.3535273096
  - # 8
    frequency:    7.3942165030
  - # 9
    frequency:    9.3874665704
  - # 10
    frequency:    9.4793795541
  - # 11
    frequency:    9.4797188335
  - # 12
    frequency:   12.0328603015
  - # 13
    frequency:   12.3832314146
  - # 14
    frequency:   13.3649336503
  - # 15
    frequency:   16.3531242543

- q-position: [    0.1833333,    0.5000000,    0.0000000 ]
  band:
  - # 1
    frequency:   -3.2107733014
  - # 2
    frequency:   -1.9747599681
  - # 3
    frequency:    3.2161997349
  - # 4
    frequency:    3.2188798749
  - # 5
    frequency:    3.4693716438
  - # 6
    frequency:    6.0093328878
  - # 7
    frequency:    6.4781819915
  - # 8
    frequency:    7.5240509633
  - # 9
    frequency:    9.4128287879
  - # 10
    frequency:    9.4784590235
  - # 11
    frequency:    9.4788730520
  - # 12
    frequency:   11.9621833275
  - # 13
    frequency:   12.3095459433
  - # 14
    frequency:   13.3913025694
  - # 15
    frequency:   16.2471097872

- q-position: [    0.2000000,    0.5000000,    0.0000000 ]
  band:
  - # 1
    frequency:   -3.1761219346
  - # 2
    frequency:   -1.7202851488
  - # 3
    frequency:    3.2190424171
  - # 4
    frequency:    3.2219371638
  - # 5
    frequency:    3.4969783798
  - # 6
    frequency:    6.0902565620
  - # 7
    frequency:    6.6118498998
  - # 8
    frequency:    7.6573827366
  - # 9
    frequency:    9.4392842630
  - # 10
    frequency:    9.4774939784
  - # 11
    frequency:    9.4779905184
  - # 12
    frequency:   11.8956102153
  - # 13
    frequency:   12.2292227675
  - # 14
    frequency:   13.4127621957
  - # 15
    frequency:   16.1351799178

- q-position: [    0.2166667,    0.5000000,    0.0000000 ]
  band:
  - # 1
    frequency:   -3.1413702433
  - # 2
    frequency:   -1.4446036536
  - # 3
    frequency:    3.2219823253
  - # 4
    frequency:    3.2250350516
  - # 5
    frequency:    3.5252144467
  - # 6
    frequency:    6.1789887619
  - # 7
    frequency:    6.7537935044
  - # 8
    frequency:    7.7932655128
  - # 9
    frequency:    9.4663434337
  - # 10
    frequency:    9.4764949264
  - # 11
    frequency:    9.4770816218
  - # 12
    frequency:   11.8339673364
  - # 13
    frequency:   12.1423712000
  - # 14
    frequency:   13.4295501201
  - # 15
    frequency:   16.0182057313

- q-position: [    0.2333333,    0.5000000,    0.0000000 ]
  band:
  - # 1
    frequency:   -3.1069581059
  - # 2
    frequency:   -1.1373210472
  - # 3
    frequency:    3.2249871473
  - # 4
    frequency:    3.2281351617
  - # 5
    frequency:    3.5537450426
  - # 6
    frequency:    6.2735484336
  - # 7
    frequency:    6.9032425325
  - # 8
    frequency:    7.9307596703
  - # 9
    frequency:    9.4754727636
  - # 10
    frequency:    9.4761570748
  - # 11
    frequency:    9.4934285219
  - # 12
    frequency:   11.7781063643
  - # 13
    frequency:   12.0491132148
  - # 14
    frequency:   13.4420203518
  - # 15
    frequency:   15.8970433462

- q-position: [    0.2500000,    0.5000000,    0.0000000 ]
  band:
  - # 1
    frequency:   -3.0732819933
  - # 2