nqpoint: 255    
npath: 5      
segment_nqpoint:
- 51
- 51
- 51
- 51
- 51
reciprocal_lattice:
- [   0.25173007,   0.00000000,   0.00000000 ] # a*
- [   0.00000000,   0.25173007,   0.00000000 ] # b*
- [   0.00000000,   0.00000000,   0.25173007 ] # c*
natom: 5      
lattice:
- [     3.972509145210000,     0.000000000000000,     0.000000000000000 ] # a
- [     0.000000000000000,     3.972509145210000,     0.000000000000000 ] # b
- [     0.000000000000000,     0.000000000000000,     3.972509145210000 ] # c
points:
- symbol: Ba # 1
  coordinates: [  0.000000000000000,  0.000000000000000,  0.000000000000000 ]
  mass: 137.327000
- symbol: Ti # 2
  coordinates: [  0.500000000000000,  0.500000000000000,  0.500000000000000 ]
  mass: 47.867000
- symbol: O  # 3
  coordinates: [  0.500000000000000,  0.500000000000000,  0.000000000000000 ]
  mass: 15.999400
- symbol: O  # 4
  coordinates: [  0.500000000000000,  0.000000000000000,  0.500000000000000 ]
  mass: 15.999400
- symbol: O  # 5
  coordinates: [  0.000000000000000,  0.500000000000000,  0.500000000000000 ]
  mass: 15.999400
supercell_matrix:
- [    4,    0,    0 ]
- [    0,    4,    0 ]
- [    0,    0,    4 ]

phonon:
- q-position: [    0.0000000,    0.0000000,    0.0000000 ]
  distance:    0.0000000
  band:
  - # 1
    frequency:   -4.4683609168
  - # 2
    frequency:   -4.4683609168
  - # 3
    frequency:   -0.5924088629
  - # 4
    frequency:    0.0030423728
  - # 5
    frequency:    0.0030423728
  - # 6
    frequency:    4.5816706678
  - # 7
    frequency:    5.0799610686
  - # 8
    frequency:    5.0799610686
  - # 9
    frequency:    9.2531363098
  - # 10
    frequency:    9.2531363098
  - # 11
    frequency:    9.2531363098
  - # 12
    frequency:   11.2115199293
  - # 13
    frequency:   13.8511203910
  - # 14
    frequency:   13.8511203910
  - # 15
    frequency:   27.8270828181

- q-position: [    0.0000000,    0.0100000,    0.0000000 ]
  distance:    0.0025173
  band:
  - # 1
    frequency:   -4.4672050513
  - # 2
    frequency:   -4.4672050513
  - # 3
    frequency:   -0.5567428044
  - # 4
    frequency:    0.1142506216
  - # 5
    frequency:    0.1142506216
  - # 6
    frequency:    4.5866067406
  - # 7
    frequency:    5.0805066287
  - # 8
    frequency:    5.0805066287
  - # 9
    frequency:    9.2536580069
  - # 10
    frequency:    9.2536580069
  - # 11
    frequency:    9.2536665230
  - # 12
    frequency:   11.2205103997
  - # 13
    frequency:   13.8506850674
  - # 14
    frequency:   13.8506850674
  - # 15
    frequency:   27.8173643673

- q-position: [    0.0000000,    0.0200000,    0.0000000 ]
  distance:    0.0050346
  band:
  - # 1
    frequency:   -4.4637476651
  - # 2
    frequency:   -4.4637476651
  - # 3
    frequency:   -0.4335256155
  - # 4
    frequency:    0.2283481266
  - # 5
    frequency:    0.2283481266
  - # 6
    frequency:    4.6014322533
  - # 7
    frequency:    5.0821462749
  - # 8
    frequency:    5.0821462749
  - # 9
    frequency:    9.2552230627
  - # 10
    frequency:    9.2552230627
  - # 11
    frequency:    9.2552548884
  - # 12
    frequency:   11.2474076035
  - # 13
    frequency:   13.8493793182
  - # 14
    frequency:   13.8493793182
  - # 15
    frequency:   27.7882279330

- q-position: [    0.0000000,    0.0300000,    0.0000000 ]
  distance:    0.0075519
  band:
  - # 1
    frequency:   -4.4580192271
  - # 2
    frequency:   -4.4580192271
  - # 3
    frequency:    0.1109906670
  - # 4
    frequency:    0.3422719939
  - # 5
    frequency:    0.3422719939
  - # 6
    frequency:    4.6261960437
  - # 7
    frequency:    5.0848888712
  - # 8
    frequency:    5.0848888712
  - # 9
    frequency:    9.2578313629
  - # 10
    frequency:    9.2578313629
  - # 11
    frequency:    9.2578945951
  - # 12
    frequency:   11.2919905544
  - # 13
    frequency:   13.8472038167
  - # 14
    frequency:   13.8472038167
  - # 15
    frequency:   27.7397303239

- q-position: [    0.0000000,    0.0400000,    0.0000000 ]
  distance:    0.0100692
  band:
  - # 1
    frequency:   -4.4500699816
  - # 2
    frequency:   -4.4500699816
  - # 3
    frequency:    0.4559125264
  - # 4
    frequency:    0.4559125264
  - # 5
    frequency:    0.5350553812
  - # 6
    frequency:    4.6609693118
  - # 7
    frequency:    5.0887490792
  - # 8
    frequency:    5.0887490792
  - # 9
    frequency:    9.2614826905
  - # 10
    frequency:    9.2614826905
  - # 11
    frequency:    9.2615743320
  - # 12
    frequency:   11.3538963041
  - # 13
    frequency:   13.8441597139
  - # 14
    frequency:   13.8441597139
  - # 15
    frequency:   27.6719664039

- q-position: [    0.0000000,    0.0500000,    0.0000000 ]
  distance:    0.0125865
  band:
  - # 1
    frequency:   -4.4399691463
  - # 2
    frequency:   -4.4399691463
  - # 3
    frequency:    0.5691610974
  - # 4
    frequency:    0.5691610974
  - # 5
    frequency:    0.7923444525
  - # 6
    frequency:    4.7058302345
  - # 7
    frequency:    5.0937471814
  - # 8
    frequency:    5.0937471814
  - # 9
    frequency:    9.2661766846
  - # 10
    frequency:    9.2661766846
  - # 11
    frequency:    9.2662783482
  - # 12
    frequency:   11.4326276930
  - # 13
    frequency:   13.8402486810
  - # 14
    frequency:   13.8402486810
  - # 15
    frequency:   27.5850693691

- q-position: [    0.0000000,    0.0600000,    0.0000000 ]
  distance:    0.0151038
  band:
  - # 1
    frequency:   -4.4278037998
  - # 2
    frequency:   -4.4278037998
  - # 3
    frequency:    0.6819013604
  - # 4
    frequency:    0.6819013604
  - # 5
    frequency:    1.0145855387
  - # 6
    frequency:    4.7608425466
  - # 7
    frequency:    5.0999088204
  - # 8
    frequency:    5.0999088204
  - # 9
    frequency:    9.2719127819
  - # 10
    frequency:    9.2719127819
  - # 11
    frequency:    9.2719865362
  - # 12
    frequency:   11.5275636394
  - # 13
    frequency:   13.8354729694
  - # 14
    frequency:   13.8354729694
  - # 15
    frequency:   27.4792111441

- q-position: [    0.0000000,    0.0700000,    0.0000000 ]
  distance:    0.0176211
  band:
  - # 1
    frequency:   -4.4136774705
  - # 2
    frequency:   -4.4136774705
  - # 3
    frequency:    0.7940065082
  - # 4
    frequency:    0.7940065082
  - # 5
    frequency:    1.2175496211
  - # 6
    frequency:    4.8260288448
  - # 7
    frequency:    5.1072646385
  - # 8
    frequency:    5.1072646385
  - # 9
    frequency:    9.2786745384
  - # 10
    frequency:    9.2786901395
  - # 11
    frequency:    9.2786901395
  - # 12
    frequency:   11.6379714694
  - # 13
    frequency:   13.8298354886
  - # 14
    frequency:   13.8298354886
  - # 15
    frequency:   27.3546029030

- q-position: [    0.0000000,    0.0800000,    0.0000000 ]
  distance:    0.0201384
  band:
  - # 1
    frequency:   -4.3977084480
  - # 2
    frequency:   -4.3977084480
  - # 3
    frequency:    0.9053375962
  - # 4
    frequency:    0.9053375962
  - # 5
    frequency:    1.4062937824
  - # 6
    frequency:    4.9013403316
  - # 7
    frequency:    5.1158497988
  - # 8
    frequency:    5.1158497988
  - # 9
    frequency:    9.2863138745
  - # 10
    frequency:    9.2865075353
  - # 11
    frequency:    9.2865075353
  - # 12
    frequency:   11.7630207189
  - # 13
    frequency:   13.8233399009
  - # 14
    frequency:   13.8233399009
  - # 15
    frequency:   27.2114957258

- q-position: [    0.0000000,    0.0900000,    0.0000000 ]
  distance:    0.0226557
  band:
  - # 1
    frequency:   -4.3800278449
  - # 2
    frequency:   -4.3800278449
  - # 3
    frequency:    1.0157424422
  - # 4
    frequency:    1.0157424422
  - # 5
    frequency:    1.5828886079
  - # 6
    frequency:    4.9866258828
  - # 7
    frequency:    5.1257033675
  - # 8
    frequency:    5.1257033675
  - # 9
    frequency:    9.2948720902
  - # 10
    frequency:    9.2953632467
  - # 11
    frequency:    9.2953632467
  - # 12
    frequency:   11.9017978205
  - # 13
    frequency:   13.8159907340
  - # 14
    frequency:   13.8159907340
  - # 15
    frequency:   27.0501814033

- q-position: [    0.0000000,    0.1000000,    0.0000000 ]
  distance:    0.0251730
  band:
  - # 1
    frequency:   -4.3607774501
  - # 2
    frequency:   -4.3607774501
  - # 3
    frequency:    1.1250550658
  - # 4
    frequency:    1.1250550658
  - # 5
    frequency:    1.7483326322
  - # 6
    frequency:    5.0816043481
  - # 7
    frequency:    5.1368675329
  - # 8
    frequency:    5.1368675329
  - # 9
    frequency:    9.3043129242
  - # 10
    frequency:    9.3052549034
  - # 11
    frequency:    9.3052549034
  - # 12
    frequency:   12.0533211028
  - # 13
    frequency:   13.8077935119
  - # 14
    frequency:   13.8077935119
  - # 15
    frequency:   26.8709934055

- q-position: [    0.0000000,    0.1100000,    0.0000000 ]
  distance:    0.0276903
  band:
  - # 1
    frequency:   -4.3401074222
  - # 2
    frequency:   -4.3401074222
  - # 3
    frequency:    1.2330957053
  - # 4
    frequency:    1.2330957053
  - # 5
    frequency:    1.9032265282
  - # 6
    frequency:    5.1493866358
  - # 7
    frequency:    5.1493866358
  - # 8
    frequency:    5.1858444100
  - # 9
    frequency:    9.3145964944
  - # 10
    frequency:    9.3161793112
  - # 11
    frequency:    9.3161793112
  - # 12
    frequency:   12.2165555810
  - # 13
    frequency:   13.7987549030
  - # 14
    frequency:   13.7987549030
  - # 15
    frequency:   26.6743080320

- q-position: [    0.0000000,    0.1200000,    0.0000000 ]
  distance:    0.0302076
  band:
  - # 1
    frequency:   -4.3181738855
  - # 2
    frequency:   -4.3181738855
  - # 3
    frequency:    1.3396714600
  - # 4
    frequency:    1.3396714600
  - # 5
    frequency:    2.0480561028
  - # 6
    frequency:    5.1633059878
  - # 7
    frequency:    5.1633059878
  - # 8
    frequency:    5.2987557224
  - # 9
    frequency:    9.3256794990
  - # 10
    frequency:    9.3281322455
  - # 11
    frequency:    9.3281322455
  - # 12
    frequency:   12.3904270923
  - # 13
    frequency:   13.7888828875
  - # 14
    frequency:   13.7888828875
  - # 15
    frequency:   26.4605457692

- q-position: [    0.0000000,    0.1300000,    0.0000000 ]
  distance:    0.0327249
  band:
  - # 1
    frequency:   -4.2951364972
  - # 2
    frequency:   -4.2951364972
  - # 3
    frequency:    1.4445775965
  - # 4
    frequency:    1.4445775965
  - # 5
    frequency:    2.1833174699
  - # 6
    frequency:    5.1786704562
  - # 7
    frequency:    5.1786704562
  - # 8
    frequency:    5.4195933549
  - # 9
    frequency:    9.3375154334
  - # 10
    frequency:    9.3411082099
  - # 11
    frequency:    9.3411082099
  - # 12
    frequency:   12.5738354169
  - # 13
    frequency:   13.7781869424
  - # 14
    frequency:   13.7781869424
  - # 15
    frequency:   26.2301728810

- q-position: [    0.0000000,    0.1400000,    0.0000000 ]
  distance:    0.0352422
  band:
  - # 1
    frequency:   -4.2711560586
  - # 2
    frequency:   -4.2711560586
  - # 3
    frequency:    1.5475995344
  - # 4
    frequency:    1.5475995344
  - # 5
    frequency:    2.3095661182
  - # 6
    frequency:    5.1955228000
  - # 7
    frequency:    5.1955228000
  - # 8
    frequency:    5.5474751562
  - # 9
    frequency:    9.3500548194
  - # 10
    frequency:    9.3551001584
  - # 11
    frequency:    9.3551001584
  - # 12
    frequency:   12.7656661199
  - # 13
    frequency:   13.7666782451
  - # 14
    frequency:   13.7666782451
  - # 15
    frequency:   25.9837032677

- q-position: [    0.0000000,    0.1500000,    0.0000000 ]
  distance:    0.0377595
  band:
  - # 1
    frequency:   -4.2463922465
  - # 2
    frequency:   -4.2463922465
  - # 3
    frequency:    1.6485155037
  - # 4
    frequency:    1.6485155037
  - # 5
    frequency:    2.4274253123
  - # 6
    frequency:    5.2139017552
  - # 7
    frequency:    5.2139017552
  - # 8
    frequency:    5.6814092714
  - # 9
    frequency:    9.3632454467
  - # 10
    frequency:    9.3700991764
  - # 11
    frequency:    9.3700991764
  - # 12
    frequency:   12.9648009322
  - # 13
    frequency:   13.7543698960
  - # 14
    frequency:   13.7543698960
  - # 15
    frequency:   25.7217006349

- q-position: [    0.0000000,    0.1600000,    0.0000000 ]
  distance:    0.0402768
  band:
  - # 1
    frequency:   -4.2210015340
  - # 2
    frequency:   -4.2210015340
  - # 3
    frequency:    1.7470998284
  - # 4
    frequency:    1.7470998284
  - # 5
    frequency:    2.5375728383
  - # 6
    frequency:    5.2338398785
  - # 7
    frequency:    5.2338398785
  - # 8
    frequency:    5.8203274518
  - # 9
    frequency:    9.3770326229
  - # 10
    frequency:    9.3860941202
  - # 11
    frequency:    9.3860941202
  - # 12
    frequency:   13.1701265680
  - # 13
    frequency:   13.7412771595
  - # 14
    frequency:   13.7412771595
  - # 15
    frequency:   25.4447810232

- q-position: [    0.0000000,    0.1700000,    0.0000000 ]
  distance:    0.0427941
  band:
  - # 1
    frequency:   -4.1951353610
  - # 2
    frequency:   -4.1951353610
  - # 3
    frequency:    1.8431267590
  - # 4
    frequency:    1.8431267590
  - # 5
    frequency:    2.6407180043
  - # 6
    frequency:    5.2553611803
  - # 7
    frequency:    5.2553611803
  - # 8
    frequency:    5.9631193902
  - # 9
    frequency:    9.3913594322
  - # 10
    frequency:    9.4030712110
  - # 11
    frequency:    9.4030712110
  - # 12
    frequency:   13.3805419353
  - # 13
    frequency:   13.7274177225
  - # 14
    frequency:   13.7274177225
  - # 15
    frequency:   25.1536157626

- q-position: [    0.0000000,    0.1800000,    0.0000000 ]
  distance:    0.0453114
  band:
  - # 1
    frequency:   -4.1689386022
  - # 2
    frequency:   -4.1689386022
  - # 3
    frequency:    1.9363747378
  - # 4
    frequency:    1.9363747378
  - # 5
    frequency:    2.7375766710
  - # 6
    frequency:    5.2784786018
  - # 7
    frequency:    5.2784786018
  - # 8
    frequency:    6.1086640288
  - # 9
    frequency:    9.4061669995
  - # 10
    frequency:    9.4210135833
  - # 11
    frequency:    9.4210135833
  - # 12
    frequency:   13.5949637315
  - # 13
    frequency:   13.7128119721
  - # 14
    frequency:   13.7128119721
  - # 15
    frequency:   24.8489349310

- q-position: [    0.0000000,    0.1900000,    0.0000000 ]
  distance:    0.0478287
  band:
  - # 1
    frequency:   -4.1425483626
  - # 2
    frequency:   -4.1425483626
  - # 3
    frequency:    2.0266309438
  - # 4
    frequency:    2.0266309438
  - # 5
    frequency:    2.8288490339
  - # 6
    frequency:    5.3031914165
  - # 7
    frequency:    5.3031914165
  - # 8
    frequency:    6.2558551607
  - # 9
    frequency:    9.4213947600
  - # 10
    frequency:    9.4399007875
  - # 11
    frequency:    9.4399007875
  - # 12
    frequency:   13.6974832894
  - # 13
    frequency:   13.6974832894
  - # 14
    frequency:   13.8123304395
  - # 15
    frequency:   24.5315314211

- q-position: [    0.0000000,    0.2000000,    0.0000000 ]
  distance:    0.0503460
  band:
  - # 1
    frequency:   -4.1160931125
  - # 2
    frequency:   -4.1160931125
  - # 3
    frequency:    2.1136959359
  - # 4
    frequency:    2.1136959359
  - # 5
    frequency:    2.9152024904
  - # 6
    frequency:    5.3294826615
  - # 7
    frequency:    5.3294826615
  - # 8
    frequency:    6.4036201582
  - # 9
    frequency:    9.4369807305
  - # 10
    frequency:    9.4597082476
  - # 11
    frequency:    9.4597082476
  - # 12
    frequency:   13.6814583598
  - # 13
    frequency:   13.6814583598
  - # 14
    frequency:   14.0316047278
  - # 15
    frequency:   24.2022657507

- q-position: [    0.0000000,    0.2100000,    0.0000000 ]
  distance:    0.0528633
  band:
  - # 1
    frequency:   -4.0896921568
  - # 2
    frequency:   -4.0896921568
  - # 3
    frequency:    2.1973881880
  - # 4
    frequency:    2.1973881880
  - # 5
    frequency:    2.9972602015
  - # 6
    frequency:    5.3573167321
  - # 7
    frequency:    5.3573167321
  - # 8
    frequency:    6.5509319082
  - # 9
    frequency:    9.4528617827
  - # 10
    frequency:    9.4804066759
  - # 11
    frequency:    9.4804066759
  - # 12
    frequency:   13.6647674986
  - # 13
    frequency:   13.6647674986
  - # 14
    frequency:   14.2517742219
  - # 15
    frequency:   23.8620717992

- q-position: [    0.0000000,    0.2200000,    0.0000000 ]
  distance:    0.0553806
  band:
  - # 1
    frequency:   -4.0634554159
  - # 2
    frequency:   -4.0634554159
  - # 3
    frequency:    2.2775482969
  - # 4
    frequency:    2.2775482969
  - # 5
    frequency:    3.0755948774
  - # 6
    frequency:    5.3866372833
  - # 7
    frequency:    5.3866372833
  - # 8
    frequency:    6.6968148410
  - # 9
    frequency:    9.4689739160
  - # 10
    frequency:    9.5019614519
  - # 11
    frequency:    9.5019614519
  - # 12
    frequency:   13.6474449881
  - # 13
    frequency:   13.6474449881
  - # 14
    frequency:   14.4718505395
  - # 15
    frequency:   23.5119637270

- q-position: [    0.0000000,    0.2300000,    0.0000000 ]
  distance:    0.0578979
  band:
  - # 1
    frequency:   -4.0374834850
  - # 2
    frequency:   -4.0374834850
  - # 3
    frequency:    2.3540426495
  - # 4
    frequency:    2.3540426495
  - # 5
    frequency:    3.1507267812
  - # 6
    frequency:    5.4173655949
  - # 7
    frequency:    5.4173655949
  - # 8
    frequency:    6.8403463231
  - # 9
    frequency:    9.4852525291
  - # 10
    frequency:    9.5243319701
  - # 11
    frequency:    9.5243319701
  - # 12
    frequency:   13.6295294255
  - # 13
    frequency:   13.6295294255
  - # 14
    frequency:   14.6908663582
  - # 15
    frequency:   23.1530444441

- q-position: [    0.0000000,    0.2400000,    0.0000000 ]
  distance:    0.0604152
  band:
  - # 1
    frequency:   -4.0118679260
  - # 2
    frequency:   -4.0118679260
  - # 3
    frequency:    2.4267663534
  - # 4
    frequency:    2.4267663534
  - # 5
    frequency:    3.2231247875
  - # 6
    frequency:    5.4493995413
  - # 7
    frequency:    5.4493995413
  - # 8
    frequency:    6.9806547500
  - # 9
    frequency:    9.5016326879
  - # 10
    frequency:    9.5474709679
  - # 11
    frequency:    9.5474709679
  - # 12
    frequency:   13.6110640765
  - # 13
    frequency:   13.6110640765
  - # 14
    frequency:   14.9078700726
  - # 15
    frequency:   22.7865161744

- q-position: [    0.0000000,    0.2500000,    0.0000000 ]
  distance:    0.0629325
  band:
  - # 1
    frequency:   -3.9866917446
  - # 2
    frequency:   -3.9866917446
  - # 3
    frequency:    2.4956452710
  - # 4
    frequency:    2.4956452710
  - # 5
    frequency:    3.2932094077
  - # 6
    frequency:    5.4826132865
  - # 7
    frequency:    5.4826132865
  - # 8
    frequency:    7.1169155599
  - # 9
    frequency:    9.5180493905
  - # 10
    frequency:    9.5713238458
  - # 11
    frequency:    9.5713238458
  - # 12
    frequency:   13.5920972307
  - # 13
    frequency:   13.5920972307
  - # 14
    frequency:   15.1219172708
  - # 15
    frequency:   22.4136939571

- q-position: [    0.0000000,    0.2600000,    0.0000000 ]
  distance:    0.0654498
  band:
  - # 1
    frequency:   -3.9620300021
  - # 2
    frequency:   -3.9620300021
  - # 3
    frequency:    2.5606370508
  - # 4
    frequency:    2.5606370508
  - # 5
    frequency:    3.3613568642
  - # 6
    frequency:    5.5168577829
  - # 7
    frequency:    5.5168577829
  - # 8
    frequency:    7.2483462057
  - # 9
    frequency:    9.5344378264
  - # 10
    frequency:    9.5958279963
  - # 11
    frequency:    9.5958279963
  - # 12
    frequency:   13.5726825525
  - # 13
    frequency:   13.5726825525
  - # 14
    frequency:   15.3320577014
  - # 15
    frequency:   22.0360234258

- q-position: [    0.0000000,    0.2700000,    0.0000000 ]
  distance:    0.0679671
  band:
  - # 1
    frequency:   -3.9379505130
  - # 2
    frequency:   -3.9379505130
  - # 3
    frequency:    2.6217311110
  - # 4
    frequency:    2.6217311110
  - # 5
    frequency:    3.4279034949
  - # 6
    frequency:    5.5519621000
  - # 7
    frequency:    5.5519621000
  - # 8
    frequency:    7.3742009374
  - # 9
    frequency:    9.5507336295
  - # 10
    frequency:    9.6209121595
  - # 11
    frequency:    9.6209121595
  - # 12
    frequency:   13.5528794188
  - # 13
    frequency:   13.5528794188
  - # 14
    frequency:   15.5373154668
  - # 15
    frequency:   21.6551050763

- q-position: [    0.0000000,    0.2800000,    0.0000000 ]
  distance:    0.0704844
  band:
  - # 1
    frequency:   -3.9145145857
  - # 2
    frequency:   -3.9145145857
  - # 3
    frequency:    2.6789476006
  - # 4
    frequency:    2.6789476006
  - # 5
    frequency:    3.4931499354
  - # 6
    frequency:    5.5877355484
  - # 7
    frequency:    5.5877355484
  - # 8
    frequency:    7.4937661158
  - # 9
    frequency:    9.5668731244
  - # 10
    frequency:    9.6464958286
  - # 11
    frequency:    9.6464958286
  - # 12
    frequency:   13.5327532367
  - # 13
    frequency:   13.5327532367
  - # 14
    frequency:   15.7366585306
  - # 15
    frequency:   21.2727287880

- q-position: [    0.0000000,    0.2900000,    0.0000000 ]
  distance:    0.0730017
  band:
  - # 1
    frequency:   -3.8917777677
  - # 2
    frequency:   -3.8917777677
  - # 3
    frequency:    2.7323354240
  - # 4
    frequency:    2.7323354240
  - # 5
    frequency:    3.5573646628
  - # 6
    frequency:    5.6239705097
  - # 7
    frequency:    5.6239705097
  - # 8
    frequency:    7.6063567043
  - # 9
    frequency:    9.5827935654
  - # 10
    frequency:    9.6724887298
  - # 11
    frequency:    9.6724887298
  - # 12
    frequency:   13.5123757267
  - # 13
    frequency:   13.5123757267
  - # 14
    frequency:   15.9289506565
  - # 15
    frequency:   20.8909252259

- q-position: [    0.0000000,    0.3000000,    0.0000000 ]
  distance:    0.0755190
  band:
  - # 1
    frequency:   -3.8697905661
  - # 2
    frequency:   -3.8697905661
  - # 3
    frequency:    2.7819694769
  - # 4
    frequency:    2.7819694769
  - # 5
    frequency:    3.6207865673
  - # 6
    frequency:    5.6604458283
  - # 7
    frequency:    5.6604458283
  - # 8
    frequency:    7.7113145843
  - # 9
    frequency:    9.5984333666
  - # 10
    frequency:    9.6987904055
  - # 11
    frequency:    9.6987904055
  - # 12
    frequency:   13.4918251589
  - # 13
    frequency:   13.4918251589
  - # 14
    frequency:   16.1128733678
  - # 15
    frequency:   20.5120461321

- q-position: [    0.0000000,    0.3100000,    0.0000000 ]
  distance:    0.0780363
  band:
  - # 1
    frequency:   -3.8485991180
  - # 2
    frequency:   -3.8485991180
  - # 3
    frequency:    2.8279472736
  - # 4
    frequency:    2.8279472736
  - # 5
    frequency:    3.6836262639
  - # 6
    frequency:    5.6969305886
  - # 7
    frequency:    5.6969305886
  - # 8
    frequency:    7.8080093995
  - # 9
    frequency:    9.6137323229
  - # 10
    frequency:    9.7252899299
  - # 11
    frequency:    9.7252899299
  - # 12
    frequency:   13.4711865267
  - # 13
    frequency:   13.4711865267
  - # 14
    frequency:   16.2867950033
  - # 15
    frequency:   20.1388958653

- q-position: [    0.0000000,    0.3200000,    0.0000000 ]
  distance:    0.0805536
  band:
  - # 1
    frequency:   -3.8282457963
  - # 2
    frequency:   -3.8282457963
  - # 3
    frequency:    2.8703851715
  - # 4
    frequency:    2.8703851715
  - # 5
    frequency:    3.7460658698
  - # 6
    frequency:    5.7331880830
  - # 7
    frequency:    5.7331880830
  - # 8
    frequency:    7.8958427394
  - # 9
    frequency:    9.6286318228
  - # 10
    frequency:    9.7518657902
  - # 11
    frequency:    9.7518657902
  - # 12
    frequency:   13.4505516363
  - # 13
    frequency:   13.4505516363
  - # 14
    frequency:   16.4485437956
  - # 15
    frequency:   19.7749565031

- q-position: [    0.0000000,    0.3300000,    0.0000000 ]
  distance:    0.0830709
  band:
  - # 1
    frequency:   -3.8087697380
  - # 2
    frequency:   -3.8087697380
  - # 3
    frequency:    2.9094143957
  - # 4
    frequency:    2.9094143957
  - # 5
    frequency:    3.8082569625
  - # 6
    frequency:    5.7689797751
  - # 7
    frequency:    5.7689797751
  - # 8
    frequency:    7.9742566095
  - # 9
    frequency:    9.6430750498
  - # 10
    frequency:    9.7783859656
  - # 11
    frequency:    9.7783859656
  - # 12
    frequency:   13.4300190925
  - # 13
    frequency:   13.4300190925
  - # 14
    frequency:   16.5950045684
  - # 15
    frequency:   19.4247859455

- q-position: [    0.0000000,    0.3400000,    0.0000000 ]
  distance:    0.0855882
  band:
  - # 1
    frequency:   -3.7902072916
  - # 2
    frequency:   -3.7902072916
  - # 3
    frequency:    2.9451770523
  - # 4
    frequency:    2.9451770523
  - # 5
    frequency:    3.8703164120
  - # 6
    frequency:    5.8040690842
  - # 7
    frequency:    5.8040690842
  - # 8
    frequency:    8.0427472489
  - # 9
    frequency:    9.6570071756
  - # 10
    frequency:    9.8047082375
  - # 11
    frequency:    9.8047082375
  - # 12
    frequency:   13.4096941551
  - # 13
    frequency:   13.4096941551
  - # 14
    frequency:   16.7214003184
  - # 15
    frequency:   19.0947266106

- q-position: [    0.0000000,    0.3500000,    0.0000000 ]
  distance:    0.0881055
  band:
  - # 1
    frequency:   -3.7725923811
  - # 2
    frequency:   -3.7725923811
  - # 3
    frequency:    2.9778222887
  - # 4
    frequency:    2.9778222887
  - # 5
    frequency:    3.9323197612
  - # 6
    frequency:    5.8382248450
  - # 7
    frequency:    5.8382248450
  - # 8
    frequency:    8.1008854020
  - # 9
    frequency:    9.6703755411
  - # 10
    frequency:    9.8306807620
  - # 11
    frequency:    9.8306807620
  - # 12
    frequency:   13.3896884397
  - # 13
    frequency:   13.3896884397
  - # 14
    frequency:   16.8200934649
  - # 15
    frequency:   18.7940886767

- q-position: [    0.0000000,    0.3600000,    0.0000000 ]
  distance:    0.0906228
  band:
  - # 1
    frequency:   -3.7559567895
  - # 2
    frequency:   -3.7559567895
  - # 3
    frequency:    3.0075027223
  - # 4
    frequency:    3.0075027223
  - # 5
    frequency:    3.9942918299
  - # 6
    frequency:    5.8712243354
  - # 7
    frequency:    5.8712243354
  - # 8
    frequency:    8.1483440226
  - # 9
    frequency:    9.6831298285
  - # 10
    frequency:    9.8561429343
  - # 11
    frequency:    9.8561429343
  - # 12
    frequency:   13.3701194365
  - # 13
    frequency:   13.3701194365
  - # 14
    frequency:   16.8791078491
  - # 15
    frequency:   18.5366055551

- q-position: [    0.0000000,    0.3700000,    0.0000000 ]
  distance:    0.0931401
  band:
  - # 1
    frequency:   -3.7403303671
  - # 2
    frequency:   -3.7403303671
  - # 3
    frequency:    3.0343712227
  - # 4
    frequency:    3.0343712227
  - # 5
    frequency:    4.0561942750
  - # 6
    frequency:    5.9028558079
  - # 7
    frequency:    5.9028558079
  - # 8
    frequency:    8.1849339806
  - # 9
    frequency:    9.6952222219
  - # 10
    frequency:    9.8809265688
  - # 11
    frequency:    9.8809265688
  - # 12
    frequency:   13.3511098181
  - # 13
    frequency:   13.3511098181
  - # 14
    frequency:   16.8825227362
  - # 15
    frequency:   18.3400093812

- q-position: [    0.0000000,    0.3800000,    0.0000000 ]
  distance:    0.0956574
  band:
  - # 1
    frequency:   -3.7257411702
  - # 2
    frequency:   -3.7257411702
  - # 3
    frequency:    3.0585780914
  - # 4
    frequency:    3.0585780914
  - # 5
    frequency:    4.1179099820
  - # 6
    frequency:    5.9329204959
  - # 7
    frequency:    5.9329204959
  - # 8
    frequency:    8.2106475105
  - # 9
    frequency:    9.7066075579
  - # 10
    frequency:    9.9048574129
  - # 11
    frequency:    9.9048574129
  - # 12
    frequency:   13.3327865137
  - # 13
    frequency:   13.3327865137
  - # 14
    frequency:   16.8181679090
  - # 15
    frequency:   18.2182970981

- q-position: [    0.0000000,    0.3900000,    0.0000000 ]
  distance:    0.0981747
  band:
  - # 1
    frequency:   -3.7122155389
  - # 2
    frequency:   -3.7122155389
  - # 3
    frequency:    3.0802686564
  - # 4
    frequency:    3.0802686564
  - # 5
    frequency:    4.1792244630
  - # 6
    frequency:    5.9612341026
  - # 7
    frequency:    5.9612341026
  - # 8
    frequency:    8.2257077698
  - # 9
    frequency:    9.7172434644
  - # 10
    frequency:    9.9277570049
  - # 11
    frequency:    9.9277570049
  - # 12
    frequency:   13.3152795272
  - # 13
    frequency:   13.3152795272
  - # 14
    frequency:   16.6909038234
  - # 15
    frequency:   18.1684038785

- q-position: [    0.0000000,    0.4000000,    0.0000000 ]
  distance:    0.1006920
  band:
  - # 1
    frequency:   -3.6997781227
  - # 2
    frequency:   -3.6997781227
  - # 3
    frequency:    3.0995812693
  - # 4
    frequency:    3.0995812693
  - # 5
    frequency:    4.2398049535
  - # 6
    frequency:    5.9876278068
  - # 7
    frequency:    5.9876278068
  - # 8
    frequency:    8.2306209305
  - # 9
    frequency:    9.7270904904
  - # 10
    frequency:    9.9494448711
  - # 11
    frequency:    9.9494448711
  - # 12
    frequency:   13.2987204887
  - # 13
    frequency:   13.2987204887
  - # 14
    frequency:   16.5223629333
  - # 15
    frequency:   18.1704099645

- q-position: [    0.0000000,    0.4100000,    0.0000000 ]
  distance:    0.1032093
  band:
  - # 1
    frequency:   -3.6884518622
  - # 2
    frequency:   -3.6884518622
  - # 3
    frequency:    3.1166456787
  - # 4
    frequency:    3.1166456787
  - # 5
    frequency:    4.2991787360
  - # 6
    frequency:    6.0119488378
  - # 7
    frequency:    6.0119488378
  - # 8
    frequency:    8.2262248077
  - # 9
    frequency:    9.7361122235
  - # 10
    frequency:    9.9697410479
  - # 11
    frequency:    9.9697410479
  - # 12
    frequency:   13.2832409374
  - # 13
    frequency:   13.2832409374
  - # 14
    frequency:   16.3362285400
  - # 15
    frequency:   18.2022084764

- q-position: [    0.0000000,    0.4200000,    0.0000000 ]
  distance:    0.1057266
  band: