3645
3

   1
    0.01000000000000     0.00000000000000     0.00000000000000

 730
    0.01000000000000     0.00000000000000     0.00000000000000

1459
    0.00707106781187     0.00000000000000     0.00707106781187
