625
3

   1
    0.01000000000000     0.00000000000000     0.00000000000000
    -0.08350030143673    -0.00000000000017    -0.00000000000018
     0.01111199480132    -0.00000000000008    -0.00000000000008
     0.00094663802188    -0.00000000000007    -0.00000000000007
     0.00094380823982    -0.00000000000005    -0.00000000000006
     0.01100099349853    -0.00000000000006    -0.00000000000007
    -0.00421368269022    -0.00001980496096    -0.00000000000008
     0.00141988735950     0.00210214725823    -0.00000000000008
     0.00055941832784     0.00021001438084    -0.00000000000008
     0.00055885447541    -0.00020863871674    -0.00000000000009
     0.00141601856536    -0.00209192603657    -0.00000000000008
    -0.00039519391025    -0.00000053366333    -0.00000000000008
    -0.00002617072352     0.00020943036500    -0.00000000000008
     0.00022783661720     0.00007770108589    -0.00000000000008
     0.00022802516617    -0.00007730607295    -0.00000000000005
    -0.00002518047210    -0.00020921953770    -0.00000000000007
    -0.00039519391023     0.00000053366340    -0.00000000000005
    -0.00002617072350    -0.00020943036497    -0.00000000000008
     0.00022783661722    -0.00007770108585    -0.00000000000005
     0.00022802516617     0.00007730607300    -0.00000000000002
    -0.00002518047210     0.00020921953772    -0.00000000000008
    -0.00421368269020     0.00001980496102    -0.00000000000006
     0.00141988735949    -0.00210214725822    -0.00000000000007
     0.00055941832783    -0.00021001438086    -0.00000000000007
     0.00055885447541     0.00020863871674    -0.00000000000007
     0.00141601856536     0.00209192603657    -0.00000000000007
    -0.00421368269024    -0.00000000000009    -0.00001980496098
     0.00141988735950    -0.00000000000007     0.00210214725822
     0.00055941832784    -0.00000000000007     0.00021001438083
     0.00055885447540    -0.00000000000007    -0.00020863871676
     0.00141601856535    -0.00000000000007    -0.00209192603659
    -0.00107525535010    -0.00000441500304    -0.00000441500305
     0.00017579048719     0.00054743079072     0.00054743079071
     0.00036168937760     0.00012108647114     0.00012108647112
     0.00036175362492    -0.00012042279314    -0.00012042279315
     0.00017751847233    -0.00054621513686    -0.00054621513687
    -0.00027803625392    -0.00000033892616    -0.00000016008347
    -0.00003036434941     0.00012075557185     0.00010293809329
     0.00017158908603     0.00004917450817     0.00004292429414
     0.00017181335150    -0.00004894149478    -0.00004270443488
    -0.00002961421441    -0.00012075248110    -0.00010286320024
    -0.00027803625392     0.00000033892619    -0.00000016008347
    -0.00003036434942    -0.00012075557180     0.00010293809328
     0.00017158908602    -0.00004917450815     0.00004292429414
     0.00017181335148     0.00004894149477    -0.00004270443490
    -0.00002961421440     0.00012075248111    -0.00010286320022
    -0.00107525535010     0.00000441500305    -0.00000441500307
     0.00017579048718    -0.00054743079075     0.00054743079069
     0.00036168937758    -0.00012108647115     0.00012108647111
     0.00036175362491     0.00012042279313    -0.00012042279315
     0.00017751847236     0.00054621513685    -0.00054621513684
    -0.00039519391026    -0.00000000000008    -0.00000053366334
    -0.00002617072352    -0.00000000000008     0.00020943036498
     0.00022783661719    -0.00000000000009     0.00007770108588
     0.00022802516616    -0.00000000000006    -0.00007730607296
    -0.00002518047211    -0.00000000000008    -0.00020921953770
    -0.00027803625392    -0.00000016008347    -0.00000033892617
    -0.00003036434942     0.00010293809329     0.00012075557183
     0.00017158908602     0.00004292429415     0.00004917450816
     0.00017181335150    -0.00004270443488    -0.00004894149477
    -0.00002961421441    -0.00010286320023    -0.00012075248111
    -0.00014499140101    -0.00000009637918    -0.00000009637919
    -0.00003222070982     0.00004280354407     0.00004280354406
     0.00010412675384     0.00002037479004     0.00002037479003
     0.00010431238249    -0.00002027825569    -0.00002027825569
    -0.00003179332082    -0.00004282501973    -0.00004282501974
    -0.00014499140099     0.00000009637921    -0.00000009637917
    -0.00003222070983    -0.00004280354406     0.00004280354407
     0.00010412675381    -0.00002037479001     0.00002037479001
     0.00010431238247     0.00002027825569    -0.00002027825572
    -0.00003179332083     0.00004282501975    -0.00004282501973
    -0.00027803625392     0.00000016008344    -0.00000033892617
    -0.00003036434942    -0.00010293809331     0.00012075557181
     0.00017158908601    -0.00004292429415     0.00004917450815
     0.00017181335151     0.00004270443486    -0.00004894149478
    -0.00002961421438     0.00010286320023    -0.00012075248111
    -0.00039519391026    -0.00000000000007     0.00000053366338
    -0.00002617072351    -0.00000000000008    -0.00020943036499
     0.00022783661722    -0.00000000000006    -0.00007770108586
     0.00022802516614    -0.00000000000003     0.00007730607298
    -0.00002518047209    -0.00000000000007     0.00020921953770
    -0.00027803625392    -0.00000016008345     0.00000033892617
    -0.00003036434942     0.00010293809329    -0.00012075557182
     0.00017158908603     0.00004292429414    -0.00004917450816
     0.00017181335150    -0.00004270443488     0.00004894149478
    -0.00002961421441    -0.00010286320023     0.00012075248108
    -0.00014499140098    -0.00000009637916     0.00000009637921
    -0.00003222070983     0.00004280354408    -0.00004280354406
     0.00010412675383     0.00002037479003    -0.00002037479001
     0.00010431238248    -0.00002027825572     0.00002027825568
    -0.00003179332083    -0.00004282501974     0.00004282501973
    -0.00014499140096     0.00000009637918     0.00000009637920
    -0.00003222070984    -0.00004280354406    -0.00004280354406
     0.00010412675379    -0.00002037479002    -0.00002037479003
     0.00010431238246     0.00002027825567     0.00002027825567
    -0.00003179332082     0.00004282501975     0.00004282501973
    -0.00027803625392     0.00000016008344     0.00000033892617
    -0.00003036434943    -0.00010293809332    -0.00012075557184
     0.00017158908600    -0.00004292429417    -0.00004917450817
     0.00017181335151     0.00004270443486     0.00004894149478
    -0.00002961421442     0.00010286320019     0.00012075248109
    -0.00421368269021    -0.00000000000007     0.00001980496104
     0.00141988735948    -0.00000000000008    -0.00210214725821
     0.00055941832784    -0.00000000000008    -0.00021001438085
     0.00055885447540    -0.00000000000007     0.00020863871676
     0.00141601856535    -0.00000000000009     0.00209192603659
    -0.00107525535011    -0.00000441500306     0.00000441500306
     0.00017579048718     0.00054743079070    -0.00054743079073
     0.00036168937756     0.00012108647113    -0.00012108647113
     0.00036175362490    -0.00012042279314     0.00012042279315
     0.00017751847235    -0.00054621513685     0.00054621513687
    -0.00027803625393    -0.00000033892617     0.00000016008345
    -0.00003036434942     0.00012075557181    -0.00010293809330
     0.00017158908601     0.00004917450814    -0.00004292429413
     0.00017181335150    -0.00004894149478     0.00004270443488
    -0.00002961421440    -0.00012075248111     0.00010286320024
    -0.00027803625391     0.00000033892618     0.00000016008346
    -0.00003036434941    -0.00012075557183    -0.00010293809329
     0.00017158908602    -0.00004917450816    -0.00004292429413
     0.00017181335149     0.00004894149477     0.00004270443488
    -0.00002961421441     0.00012075248111     0.00010286320020
    -0.00107525535012     0.00000441500303     0.00000441500306
     0.00017579048719    -0.00054743079073    -0.00054743079069
     0.00036168937757    -0.00012108647114    -0.00012108647111
     0.00036175362491     0.00012042279312     0.00012042279313
     0.00017751847236     0.00054621513684     0.00054621513686
     0.00081080183143     0.01368266044733     0.01368266044731
     0.00235098731642     0.00080636562200     0.00080636562201
     0.00153063766516     0.00000054699063     0.00000054699063
     0.00234828955235    -0.00080149890350    -0.00080149890352
     0.00088897309457    -0.01361825898354    -0.01361825898358
    -0.00081229063220     0.00165613129975     0.00029125431067
     0.00046722445275     0.00067232230287     0.00022610385231
     0.00068895064593     0.00000062194364     0.00000022589964
     0.00046860615886    -0.00067006692134    -0.00022529157561
    -0.00080848745435    -0.00165782646779    -0.00029145020870
    -0.00036229830449     0.00000000000001     0.00006163106524
     0.00016717849136     0.00000000000004     0.00007221695839
     0.00038873402594     0.00000000000004     0.00000010297887
     0.00016821333852     0.00000000000009    -0.00007205378412
    -0.00036136398602     0.00000000000001    -0.00006172496711
    -0.00081229063218    -0.00165613129983     0.00029125431067
     0.00046722445278    -0.00067232230288     0.00022610385231
     0.00068895064597    -0.00000062194368     0.00000022589959
     0.00046860615877     0.00067006692127    -0.00022529157561
    -0.00080848745433     0.00165782646772    -0.00029145020868
     0.00081080183132    -0.01368266044688     0.01368266044719
     0.00235098731643    -0.00080636562165     0.00080636562198
     0.00153063766515    -0.00000054699026     0.00000054699059
     0.00234828955235     0.00080149890390    -0.00080149890354
     0.00088897309459     0.01361825898390    -0.01361825898356
    -0.00081229063217     0.00029125431070     0.00165613129975
     0.00046722445274     0.00022610385233     0.00067232230284
     0.00068895064593     0.00000022589965     0.00000062194364
     0.00046860615882    -0.00022529157559    -0.00067006692136
    -0.00080848745432    -0.00029145020867    -0.00165782646779
    -0.00038349733431     0.00027010338294     0.00027010338291
     0.00018428936550     0.00023635536035     0.00023635536032
     0.00039606216581     0.00000026946977     0.00000026946975
     0.00018538395236    -0.00023582525286    -0.00023582525291
    -0.00038210174189    -0.00027094420520    -0.00027094420523
    -0.00023201735992     0.00000000000005     0.00008433573871
     0.00009969099115     0.00000000000002     0.00010115313604
     0.00026334665711     0.00000000000005     0.00000014408099
     0.00010045718970     0.00000000000010    -0.00010095975765
    -0.00023141674816    -0.00000000000001    -0.00008456172682
    -0.00038349733431    -0.00027010338300     0.00027010338297
     0.00018428936555    -0.00023635536032     0.00023635536037
     0.00039606216589    -0.00000026946973     0.00000026946977
     0.00018538395232     0.00023582525291    -0.00023582525289
    -0.00038210174191     0.00027094420521    -0.00027094420523
    -0.00081229063220    -0.00029125431027     0.00165613129977
     0.00046722445278    -0.00022610385195     0.00067232230288
     0.00068895064588    -0.00000022589932     0.00000062194363
     0.00046860615884     0.00022529157595    -0.00067006692137
    -0.00080848745435     0.00029145020903    -0.00165782646775
    -0.00036229830447     0.00006163106525     0.00000000000000
     0.00016717849137     0.00007221695841     0.00000000000003
     0.00038873402596     0.00000010297890     0.00000000000004
     0.00016821333849    -0.00007205378408     0.00000000000004
    -0.00036136398598    -0.00006172496710     0.00000000000003
    -0.00023201735991     0.00008433573872     0.00000000000003
     0.00009969099116     0.00010115313605     0.00000000000001
     0.00026334665712     0.00000014408100     0.00000000000005
     0.00010045718968    -0.00010095975763     0.00000000000007
    -0.00023141674814    -0.00008456172678    -0.00000000000001
    -0.00016802631251     0.00000000000004     0.00000000000003
     0.00006764923372     0.00000000000005     0.00000000000004
     0.00019567739176    -0.00000000000019    -0.00000000000023
     0.00006818107886     0.00000000000008     0.00000000000007
    -0.00016760843573     0.00000000000004     0.00000000000003
    -0.00023201735993    -0.00008433573879     0.00000000000003
     0.00009969099117    -0.00010115313604     0.00000000000006
     0.00026334665716    -0.00000014408083     0.00000000000007
     0.00010045718971     0.00010095975769     0.00000000000013
    -0.00023141674812     0.00008456172679     0.00000000000006
    -0.00036229830451    -0.00006163106484     0.00000000000001
     0.00016717849139    -0.00007221695805    -0.00000000000002
     0.00038873402596    -0.00000010297861     0.00000000000002
     0.00016821333854     0.00007205378443     0.00000000000006
    -0.00036136398600     0.00006172496745     0.00000000000005
    -0.00081229063217     0.00029125431070    -0.00165613129974
     0.00046722445278     0.00022610385236    -0.00067232230284
     0.00068895064593     0.00000022589963    -0.00000062194370
     0.00046860615878    -0.00022529157555     0.00067006692133
    -0.00080848745430    -0.00029145020867     0.00165782646778
    -0.00038349733429     0.00027010338298    -0.00027010338292
     0.00018428936555     0.00023635536041    -0.00023635536030
     0.00039606216585     0.00000026946979    -0.00000026946972
     0.00018538395234    -0.00023582525283     0.00023582525295
    -0.00038210174190    -0.00027094420518     0.00027094420527
    -0.00023201735995     0.00000000000004    -0.00008433573878
     0.00009969099117     0.00000000000006    -0.00010115313601
     0.00026334665719     0.00000000000013    -0.00000014408074
     0.00010045718974     0.00000000000015     0.00010095975776
    -0.00023141674814     0.00000000000007     0.00008456172685
    -0.00038349733428    -0.00027010338304    -0.00027010338300
     0.00018428936557    -0.00023635536034    -0.00023635536033
     0.00039606216595    -0.00000026946968    -0.00000026946965
     0.00018538395228     0.00023582525288     0.00023582525290
    -0.00038210174192     0.00027094420518     0.00027094420524
    -0.00081229063221    -0.00029125431025    -0.00165613129977
     0.00046722445280    -0.00022610385195    -0.00067232230284
     0.00068895064597    -0.00000022589929    -0.00000062194360
     0.00046860615880     0.00022529157594     0.00067006692138
    -0.00080848745435     0.00029145020904     0.00165782646780
     0.00081080183134     0.01368266044724    -0.01368266044687
     0.00235098731644     0.00080636562199    -0.00080636562162
     0.00153063766518     0.00000054699062    -0.00000054699020
     0.00234828955240    -0.00080149890348     0.00080149890394
     0.00088897309458    -0.01361825898356     0.01361825898392
    -0.00081229063222     0.00165613129978    -0.00029125431028
     0.00046722445278     0.00067232230291    -0.00022610385192
     0.00068895064593     0.00000062194368    -0.00000022589928
     0.00046860615888    -0.00067006692129     0.00022529157598
    -0.00080848745438    -0.00165782646776     0.00029145020903
    -0.00036229830450     0.00000000000003    -0.00006163106480
     0.00016717849138     0.00000000000003    -0.00007221695802
     0.00038873402592     0.00000000000002    -0.00000010297860
     0.00016821333859     0.00000000000012     0.00007205378447
    -0.00036136398603     0.00000000000003     0.00006172496746
    -0.00081229063216    -0.00165613129978    -0.00029125431024
     0.00046722445283    -0.00067232230285    -0.00022610385192
     0.00068895064601    -0.00000062194361    -0.00000022589925
     0.00046860615880     0.00067006692130     0.00022529157598
    -0.00080848745432     0.00165782646774     0.00029145020908
     0.00081080183130    -0.01368266044686    -0.01368266044683
     0.00235098731646    -0.00080636562166    -0.00080636562164
     0.00153063766519    -0.00000054699027    -0.00000054699024
     0.00234828955237     0.00080149890392     0.00080149890393
     0.00088897309458     0.01361825898390     0.01361825898389
     0.00361744172952    -0.00133957229929    -0.00000000000023
    -0.00095903809401    -0.00048363762691    -0.00000000000026
    -0.00047005308359    -0.00000026164865    -0.00000000000025
    -0.00095538895930     0.00047953891485    -0.00000000000027
     0.00338662372724     0.00155337728364    -0.00000000000026
     0.00036744901448    -0.00043678134736    -0.00000000000026
    -0.00024342668208    -0.00028188400628    -0.00000000000025
    -0.00024109933639    -0.00000024945311    -0.00000000000026
    -0.00024344703450     0.00028089590599    -0.00000000000026
     0.00036513160111     0.00043686663463    -0.00000000000025
     0.00014092359335     0.00000000000000    -0.00000000000025
    -0.00006870461860    -0.00000000000001    -0.00000000000026
    -0.00014280257358    -0.00000000000003    -0.00000000000032
    -0.00006905277116     0.00000000000000    -0.00000000000029
     0.00014052587941    -0.00000000000001    -0.00000000000029
     0.00036744901448     0.00043678134735    -0.00000000000028
    -0.00024342668209     0.00028188400627    -0.00000000000027
    -0.00024109933638     0.00000024945311    -0.00000000000030
    -0.00024344703449    -0.00028089590600    -0.00000000000029
     0.00036513160109    -0.00043686663465    -0.00000000000030
     0.00361744172954     0.00133957229930    -0.00000000000026
    -0.00095903809401     0.00048363762693    -0.00000000000025
    -0.00047005308360     0.00000026164865    -0.00000000000029
    -0.00095538895931    -0.00047953891484    -0.00000000000030
     0.00338662372724    -0.00155337728362    -0.00000000000030
     0.00064757847422    -0.00097980283011    -0.00306906208996
    -0.00038929414836    -0.00017668112068    -0.00080205917919
    -0.00032458650003    -0.00000014101831    -0.00000071040082
    -0.00038924362825     0.00017587003286     0.00079889663180
     0.00063936709804     0.00097277240630     0.00306804906588
     0.00020762842201    -0.00020836460181    -0.00039153171384
    -0.00011671202395    -0.00013825510066    -0.00025284075254
    -0.00017895518582    -0.00000014952131    -0.00000028958736
    -0.00011711838693     0.00013793584623     0.00025210129994
     0.00020655855393     0.00020880525383     0.00039194462459
     0.00010720271812    -0.00000000000001    -0.00010250547505
    -0.00005018716664    -0.00000000000001    -0.00010248234644
    -0.00011370143724    -0.00000000000002    -0.00000015060395
    -0.00005047808580    -0.00000000000001     0.00010224661589
     0.00010691861325    -0.00000000000002     0.00010270592329
     0.00020762842202     0.00020836460179    -0.00039153171384
    -0.00011671202393     0.00013825510064    -0.00025284075255
    -0.00017895518582     0.00000014952130    -0.00000028958737
    -0.00011711838692    -0.00013793584624     0.00025210129991
     0.00020655855392    -0.00020880525386     0.00039194462457
     0.00064757847423     0.00097980283011    -0.00306906208993
    -0.00038929414837     0.00017668112069    -0.00080205917919
    -0.00032458650004     0.00000014101832    -0.00000071040083
    -0.00038924362825    -0.00017587003284     0.00079889663178
     0.00063936709804    -0.00097277240628     0.00306804906586
     0.00015847260520    -0.00003470967667    -0.00039567699790
    -0.00008096524371    -0.00003590106120    -0.00026347695619
    -0.00015257809170    -0.00000004754395    -0.00000028281148
    -0.00008132796047     0.00003579693356     0.00026274392586
     0.00015797677059     0.00003472592857     0.00039645751932
     0.00009355694491    -0.00004060561556    -0.00010489944701
    -0.00004269493721    -0.00004393907385    -0.00010629314354
    -0.00010038344307    -0.00000005889541    -0.00000013267445
    -0.00004296389900     0.00004385699129     0.00010608728148
     0.00009328813642     0.00004070793740     0.00010531503303
     0.00006436693781     0.00000000000001    -0.00004079477387
    -0.00002720711204     0.00000000000001    -0.00005092468106
    -0.00007400008195     0.00000000000002    -0.00000007298271
    -0.00002741660274     0.00000000000001     0.00005083393186
     0.00006421628153     0.00000000000001     0.00004094363013
     0.00009355694493     0.00004060561555    -0.00010489944703
    -0.00004269493722     0.00004393907385    -0.00010629314356
    -0.00010038344307     0.00000005889541    -0.00000013267442
    -0.00004296389901    -0.00004385699132     0.00010608728149
     0.00009328813642    -0.00004070793743     0.00010531503302
     0.00015847260520     0.00003470967668    -0.00039567699788
    -0.00008096524372     0.00003590106119    -0.00026347695616
    -0.00015257809170     0.00000004754394    -0.00000028281144
    -0.00008132796048    -0.00003579693355     0.00026274392589
     0.00015797677060    -0.00003472592854     0.00039645751934
     0.00015847260521    -0.00003470967666     0.00039567699790
    -0.00008096524373    -0.00003590106118     0.00026347695616
    -0.00015257809171    -0.00000004754393     0.00000028281143
    -0.00008132796045     0.00003579693356    -0.00026274392589
     0.00015797677059     0.00003472592857    -0.00039645751929
     0.00009355694493    -0.00004060561557     0.00010489944698
    -0.00004269493723    -0.00004393907387     0.00010629314349
    -0.00010038344308    -0.00000005889543     0.00000013267442
    -0.00004296389899     0.00004385699130    -0.00010608728153
     0.00009328813643     0.00004070793741    -0.00010531503302
     0.00006436693783     0.00000000000000     0.00004079477382
    -0.00002720711206     0.00000000000000     0.00005092468103
    -0.00007400008195     0.00000000000002     0.00000007298272
    -0.00002741660276     0.00000000000000    -0.00005083393184
     0.00006421628153    -0.00000000000000    -0.00004094363011
     0.00009355694493     0.00004060561557     0.00010489944700
    -0.00004269493721     0.00004393907386     0.00010629314352
    -0.00010038344308     0.00000005889539     0.00000013267445
    -0.00004296389900    -0.00004385699131    -0.00010608728151
     0.00009328813642    -0.00004070793743    -0.00010531503303
     0.00015847260520     0.00003470967668     0.00039567699792
    -0.00008096524372     0.00003590106120     0.00026347695619
    -0.00015257809171     0.00000004754394     0.00000028281147
    -0.00008132796048    -0.00003579693355    -0.00026274392589
     0.00015797677059    -0.00003472592855    -0.00039645751930
     0.00064757847423    -0.00097980283010     0.00306906208985
    -0.00038929414834    -0.00017668112069     0.00080205917911
    -0.00032458650002    -0.00000014101832     0.00000071040074
    -0.00038924362823     0.00017587003285    -0.00079889663187
     0.00063936709803     0.00097277240629    -0.00306804906593
     0.00020762842201    -0.00020836460179     0.00039153171376
    -0.00011671202393    -0.00013825510064     0.00025284075247
    -0.00017895518580    -0.00000014952131     0.00000028958727
    -0.00011711838692     0.00013793584622    -0.00025210130002
     0.00020655855392     0.00020880525384    -0.00039194462465
     0.00010720271811     0.00000000000001     0.00010250547498
    -0.00005018716663     0.00000000000001     0.00010248234634
    -0.00011370143724    -0.00000000000001     0.00000015060385
    -0.00005047808580    -0.00000000000000    -0.00010224661596
     0.00010691861325    -0.00000000000000    -0.00010270592334
     0.00020762842201     0.00020836460180     0.00039153171377
    -0.00011671202394     0.00013825510065     0.00025284075247
    -0.00017895518581     0.00000014952130     0.00000028958730
    -0.00011711838693    -0.00013793584625    -0.00025210129998
     0.00020655855393    -0.00020880525386    -0.00039194462460
     0.00064757847423     0.00097980283010     0.00306906208988
    -0.00038929414836     0.00017668112069     0.00080205917913
    -0.00032458650003     0.00000014101831     0.00000071040078
    -0.00038924362824    -0.00017587003284    -0.00079889663182
     0.00063936709804    -0.00097277240628    -0.00306804906589
     0.00361744172952    -0.00000000000022    -0.00133957229929
    -0.00095903809401    -0.00000000000025    -0.00048363762690
    -0.00047005308360    -0.00000000000027    -0.00000026164866
    -0.00095538895930    -0.00000000000027     0.00047953891485
     0.00338662372724    -0.00000000000026     0.00155337728364
     0.00064757847422    -0.00306906208996    -0.00097980283009
    -0.00038929414836    -0.00080205917919    -0.00017668112068
    -0.00032458650003    -0.00000071040084    -0.00000014101830
    -0.00038924362824     0.00079889663178     0.00017587003286
     0.00063936709804     0.00306804906587     0.00097277240632
     0.00015847260520    -0.00039567699793    -0.00003470967667
    -0.00008096524371    -0.00026347695622    -0.00003590106119
    -0.00015257809169    -0.00000028281148    -0.00000004754394
    -0.00008132796047     0.00026274392583     0.00003579693357
     0.00015797677059     0.00039645751929     0.00003472592857
     0.00015847260521     0.00039567699787    -0.00003470967666
    -0.00008096524372     0.00026347695615    -0.00003590106117
    -0.00015257809170     0.00000028281142    -0.00000004754392
    -0.00008132796044    -0.00026274392589     0.00003579693356
     0.00015797677059    -0.00039645751931     0.00003472592857
     0.00064757847423     0.00306906208988    -0.00097980283010
    -0.00038929414835     0.00080205917914    -0.00017668112068
    -0.00032458650001     0.00000071040077    -0.00000014101831
    -0.00038924362823    -0.00079889663184     0.00017587003285
     0.00063936709803    -0.00306804906589     0.00097277240630
     0.00036744901448    -0.00000000000026    -0.00043678134735
    -0.00024342668208    -0.00000000000025    -0.00028188400628
    -0.00024109933638    -0.00000000000026    -0.00000024945311
    -0.00024344703450    -0.00000000000027     0.00028089590600
     0.00036513160110    -0.00000000000025     0.00043686663463
     0.00020762842202    -0.00039153171383    -0.00020836460179
    -0.00011671202394    -0.00025284075255    -0.00013825510066
    -0.00017895518582    -0.00000028958738    -0.00000014952131
    -0.00011711838693     0.00025210129993     0.00013793584624
     0.00020655855393     0.00039194462459     0.00020880525384
     0.00009355694492    -0.00010489944702    -0.00004060561555
    -0.00004269493722    -0.00010629314355    -0.00004393907385
    -0.00010038344307    -0.00000013267446    -0.00000005889541
    -0.00004296389900     0.00010608728147     0.00004385699130
     0.00009328813642     0.00010531503302     0.00004070793741
     0.00009355694493     0.00010489944697    -0.00004060561556
    -0.00004269493723     0.00010629314348    -0.00004393907386
    -0.00010038344307     0.00000013267442    -0.00000005889542
    -0.00004296389899    -0.00010608728153     0.00004385699130
     0.00009328813643    -0.00010531503304     0.00004070793741
     0.00020762842201     0.00039153171378    -0.00020836460179
    -0.00011671202393     0.00025284075248    -0.00013825510064
    -0.00017895518580     0.00000028958731    -0.00000014952130
    -0.00011711838693    -0.00025210129998     0.00013793584623
     0.00020655855393    -0.00039194462460     0.00020880525385
     0.00014092359335    -0.00000000000027     0.00000000000001
    -0.00006870461860    -0.00000000000026     0.00000000000000
    -0.00014280257359    -0.00000000000032    -0.00000000000003
    -0.00006905277116    -0.00000000000029     0.00000000000001
     0.00014052587941    -0.00000000000028    -0.00000000000001
     0.00010720271813    -0.00010250547506     0.00000000000000
    -0.00005018716664    -0.00010248234645     0.00000000000000
    -0.00011370143724    -0.00000015060396    -0.00000000000000
    -0.00005047808581     0.00010224661587    -0.00000000000001
     0.00010691861326     0.00010270592329    -0.00000000000000
     0.00006436693782    -0.00004079477386     0.00000000000002
    -0.00002720711204    -0.00005092468107     0.00000000000002
    -0.00007400008195    -0.00000007298274     0.00000000000001
    -0.00002741660276     0.00005083393184     0.00000000000001
     0.00006421628155     0.00004094363012     0.00000000000003
     0.00006436693784     0.00004079477382     0.00000000000001
    -0.00002720711207     0.00005092468102     0.00000000000001
    -0.00007400008195     0.00000007298269     0.00000000000003
    -0.00002741660277    -0.00005083393186     0.00000000000001
     0.00006421628153    -0.00004094363011     0.00000000000001
     0.00010720271811     0.00010250547501     0.00000000000002
    -0.00005018716663     0.00010248234637     0.00000000000002
    -0.00011370143723     0.00000015060389     0.00000000000001
    -0.00005047808581    -0.00010224661593    -0.00000000000001
     0.00010691861326    -0.00010270592331     0.00000000000001
     0.00036744901448    -0.00000000000027     0.00043678134733
    -0.00024342668209    -0.00000000000027     0.00028188400625
    -0.00024109933639    -0.00000000000029     0.00000024945310
    -0.00024344703449    -0.00000000000029    -0.00028089590602
     0.00036513160109    -0.00000000000029    -0.00043686663466
     0.00020762842201    -0.00039153171385     0.00020836460178
    -0.00011671202394    -0.00025284075256     0.00013825510062
    -0.00017895518583    -0.00000028958738     0.00000014952129
    -0.00011711838692     0.00025210129992    -0.00013793584624
     0.00020655855392     0.00039194462457    -0.00020880525387
     0.00009355694492    -0.00010489944705     0.00004060561555
    -0.00004269493723    -0.00010629314355     0.00004393907383
    -0.00010038344308    -0.00000013267442     0.00000005889539
    -0.00004296389901     0.00010608728147    -0.00004385699133
     0.00009328813643     0.00010531503300    -0.00004070793743
     0.00009355694493     0.00010489944700     0.00004060561556
    -0.00004269493722     0.00010629314350     0.00004393907384