nqpoint: 151    
natom:   5      
reciprocal_lattice:
- [   0.25180157,   0.00000000,   0.00000000 ] # a*
- [   0.00000000,   0.25180157,   0.00000000 ] # b*
- [   0.00000000,   0.00000000,   0.25180157 ] # c*
phonon:
- q-position: [    0.0000000,    0.0000000,    0.0000000 ]
  band:
  - # 1
    frequency:   -1.9902069368
  - # 2
    frequency:   -1.9902069368
  - # 3
    frequency:   -1.9902069368
  - # 4
    frequency:    0.8643003862
  - # 5
    frequency:    0.8643003862
  - # 6
    frequency:    0.8643003862
  - # 7
    frequency:    5.1076870515
  - # 8
    frequency:    5.1076870515
  - # 9
    frequency:    5.1076870515
  - # 10
    frequency:    9.3758872468
  - # 11
    frequency:    9.3758872468
  - # 12
    frequency:    9.3758872468
  - # 13
    frequency:   14.3756357035
  - # 14
    frequency:   14.3756357035
  - # 15
    frequency:   14.3756357035

- q-position: [    0.0000000,    0.0166667,    0.0000000 ]
  band:
  - # 1
    frequency:   -1.9862990463
  - # 2
    frequency:   -1.9862990463
  - # 3
    frequency:    0.2569890967
  - # 4
    frequency:    0.8925306411
  - # 5
    frequency:    0.8925306411
  - # 6
    frequency:    4.9597698062
  - # 7
    frequency:    5.1093848108
  - # 8
    frequency:    5.1093848108
  - # 9
    frequency:    9.3771411849
  - # 10
    frequency:    9.3772838654
  - # 11
    frequency:    9.3772838654
  - # 12
    frequency:   12.7514743314
  - # 13
    frequency:   14.3742562374
  - # 14
    frequency:   14.3742562374
  - # 15
    frequency:   18.7727521507

- q-position: [    0.0000000,    0.0333333,    0.0000000 ]
  band:
  - # 1
    frequency:   -1.9746419118
  - # 2
    frequency:   -1.9746419118
  - # 3
    frequency:    0.5667972487
  - # 4
    frequency:    0.9718676697
  - # 5
    frequency:    0.9718676697
  - # 6
    frequency:    4.9931124712
  - # 7
    frequency:    5.1145134684
  - # 8
    frequency:    5.1145134684
  - # 9
    frequency:    9.3808856805
  - # 10
    frequency:    9.3814733353
  - # 11
    frequency:    9.3814733353
  - # 12
    frequency:   12.7801014256
  - # 13
    frequency:   14.3701206078
  - # 14
    frequency:   14.3701206078
  - # 15
    frequency:   18.7819355245

- q-position: [    0.0000000,    0.0500000,    0.0000000 ]
  band:
  - # 1
    frequency:   -1.9554148272
  - # 2
    frequency:   -1.9554148272
  - # 3
    frequency:    0.8574296390
  - # 4
    frequency:    1.0899842680
  - # 5
    frequency:    1.0899842680
  - # 6
    frequency:    5.0482770170
  - # 7
    frequency:    5.1231783333
  - # 8
    frequency:    5.1231783333
  - # 9
    frequency:    9.3870691376
  - # 10
    frequency:    9.3884543300
  - # 11
    frequency:    9.3884543300
  - # 12
    frequency:   12.8258619609
  - # 13
    frequency:   14.3632373473
  - # 14
    frequency:   14.3632373473
  - # 15
    frequency:   18.7975146018

- q-position: [    0.0000000,    0.0666667,    0.0000000 ]
  band:
  - # 1
    frequency:   -1.9288572732
  - # 2
    frequency:   -1.9288572732
  - # 3
    frequency:    1.1366618013
  - # 4
    frequency:    1.2338975041
  - # 5
    frequency:    1.2338975041
  - # 6
    frequency:    5.1245753830
  - # 7
    frequency:    5.1355518798
  - # 8
    frequency:    5.1355518798
  - # 9
    frequency:    9.3956067509
  - # 10
    frequency:    9.3982240610
  - # 11
    frequency:    9.3982240610
  - # 12
    frequency:   12.8861594222
  - # 13
    frequency:   14.3536214298
  - # 14
    frequency:   14.3536214298
  - # 15
    frequency:   18.8197410201

- q-position: [    0.0000000,    0.0833333,    0.0000000 ]
  band:
  - # 1
    frequency:   -1.8952041103
  - # 2
    frequency:   -1.8952041103
  - # 3
    frequency:    1.3931515936
  - # 4
    frequency:    1.3931515936
  - # 5
    frequency:    1.4042958533
  - # 6
    frequency:    5.1518682343
  - # 7
    frequency:    5.1518682343
  - # 8
    frequency:    5.2209106211
  - # 9
    frequency:    9.4063822431
  - # 10
    frequency:    9.4107773731
  - # 11
    frequency:    9.4107773731
  - # 12
    frequency:   12.9579514317
  - # 13
    frequency:   14.3412953927
  - # 14
    frequency:   14.3412953927
  - # 15
    frequency:   18.8486840301

- q-position: [    0.0000000,    0.1000000,    0.0000000 ]
  band:
  - # 1
    frequency:   -1.8546287843
  - # 2
    frequency:   -1.8546287843
  - # 3
    frequency:    1.5600790894
  - # 4
    frequency:    1.5600790894
  - # 5
    frequency:    1.6594992649
  - # 6
    frequency:    5.1724135784
  - # 7
    frequency:    5.1724135784
  - # 8
    frequency:    5.3356950988
  - # 9
    frequency:    9.4192502100
  - # 10
    frequency:    9.4261053986
  - # 11
    frequency:    9.4261053986
  - # 12
    frequency:   13.0381963150
  - # 13
    frequency:   14.3262908961
  - # 14
    frequency:   14.3262908961
  - # 15
    frequency:   18.8840236556

- q-position: [    0.0000000,    0.1166667,    0.0000000 ]
  band:
  - # 1
    frequency:   -1.8072056121
  - # 2
    frequency:   -1.8072056121
  - # 3
    frequency:    1.7291069312
  - # 4
    frequency:    1.7291069312
  - # 5
    frequency:    1.9017526910
  - # 6
    frequency:    5.1975107193
  - # 7
    frequency:    5.1975107193
  - # 8
    frequency:    5.4668116888
  - # 9
    frequency:    9.4340389932
  - # 10
    frequency:    9.4441936977
  - # 11
    frequency:    9.4441936977
  - # 12
    frequency:   13.1242504777
  - # 13
    frequency:   14.3086507038
  - # 14
    frequency:   14.3086507038
  - # 15
    frequency:   18.9248823858

- q-position: [    0.0000000,    0.1333333,    0.0000000 ]
  band:
  - # 1
    frequency:   -1.7528908521
  - # 2
    frequency:   -1.7528908521
  - # 3
    frequency:    1.8960781140
  - # 4
    frequency:    1.8960781140
  - # 5
    frequency:    2.1310387487
  - # 6
    frequency:    5.2274959211
  - # 7
    frequency:    5.2274959211
  - # 8
    frequency:    5.6116471796
  - # 9
    frequency:    9.4505539835
  - # 10
    frequency:    9.4650197935
  - # 11
    frequency:    9.4650197935
  - # 12
    frequency:   13.2141369299
  - # 13
    frequency:   14.2884310714
  - # 14
    frequency:   14.2884310714
  - # 15
    frequency:   18.9697443068

- q-position: [    0.0000000,    0.1500000,    0.0000000 ]
  band:
  - # 1
    frequency:   -1.6915146940
  - # 2
    frequency:   -1.6915146940
  - # 3
    frequency:    2.0577950559
  - # 4
    frequency:    2.0577950559
  - # 5
    frequency:    2.3478057363
  - # 6
    frequency:    5.2626864480
  - # 7
    frequency:    5.2626864480
  - # 8
    frequency:    5.7672079395
  - # 9
    frequency:    9.4685812476
  - # 10
    frequency:    9.4885500039
  - # 11
    frequency:    9.4885500039
  - # 12
    frequency:   13.3066367509
  - # 13
    frequency:   14.2657045179
  - # 14
    frequency:   14.2657045179
  - # 15
    frequency:   19.0164923654

- q-position: [    0.0000000,    0.1666667,    0.0000000 ]
  band:
  - # 1
    frequency:   -1.6227737713
  - # 2
    frequency:   -1.6227737713
  - # 3
    frequency:    2.2117520831
  - # 4
    frequency:    2.2117520831
  - # 5
    frequency:    2.5528288550
  - # 6
    frequency:    5.3033384441
  - # 7
    frequency:    5.3033384441
  - # 8
    frequency:    5.9303025983
  - # 9
    frequency:    9.4878913669
  - # 10
    frequency:    9.5147354725
  - # 11
    frequency:    9.5147354725
  - # 12
    frequency:   13.4011988079
  - # 13
    frequency:   14.2405629545
  - # 14
    frequency:   14.2405629545
  - # 15
    frequency:   19.0625658995

- q-position: [    0.0000000,    0.1833333,    0.0000000 ]
  band:
  - # 1
    frequency:   -1.5462139190
  - # 2
    frequency:   -1.5462139190
  - # 3
    frequency:    2.3559931200
  - # 4
    frequency:    2.3559931200
  - # 5
    frequency:    2.7470316070
  - # 6
    frequency:    5.3495969772
  - # 7
    frequency:    5.3495969772
  - # 8
    frequency:    6.0977565074
  - # 9
    frequency:    9.5082433750
  - # 10
    frequency:    9.5435073168
  - # 11
    frequency:    9.5435073168
  - # 12
    frequency:   13.4977056361
  - # 13
    frequency:   14.2131211338
  - # 14
    frequency:   14.2131211338
  - # 15
    frequency:   19.1052113666

- q-position: [    0.0000000,    0.2000000,    0.0000000 ]
  band:
  - # 1
    frequency:   -1.4611923000
  - # 2
    frequency:   -1.4611923000
  - # 3
    frequency:    2.4890443662
  - # 4
    frequency:    2.4890443662
  - # 5
    frequency:    2.9313134460
  - # 6
    frequency:    5.4014431316
  - # 7
    frequency:    5.4014431316
  - # 8
    frequency:    6.2666161914
  - # 9
    frequency:    9.5293886864
  - # 10
    frequency:    9.5747708506
  - # 11
    frequency:    9.5747708506
  - # 12
    frequency:   13.5961623360
  - # 13
    frequency:   14.1835203735
  - # 14
    frequency:   14.1835203735
  - # 15
    frequency:   19.1417796146

- q-position: [    0.0000000,    0.2166667,    0.0000000 ]
  band:
  - # 1
    frequency:   -1.3668032766
  - # 2
    frequency:   -1.3668032766
  - # 3
    frequency:    2.6098861724
  - # 4
    frequency:    2.6098861724
  - # 5
    frequency:    3.1064139611
  - # 6
    frequency:    5.4586461774
  - # 7
    frequency:    5.4586461774
  - # 8
    frequency:    6.4343090425
  - # 9
    frequency:    9.5510749174
  - # 10
    frequency:    9.6083988973
  - # 11
    frequency:    9.6083988973
  - # 12
    frequency:   13.6963840662
  - # 13
    frequency:   14.1519324885
  - # 14
    frequency:   14.1519324885
  - # 15
    frequency:   19.1700181567

- q-position: [    0.0000000,    0.2333333,    0.0000000 ]
  band:
  - # 1
    frequency:   -1.2617382607
  - # 2
    frequency:   -1.2617382607
  - # 3
    frequency:    2.7179379111
  - # 4
    frequency:    2.7179379111
  - # 5
    frequency:    3.2728269521
  - # 6
    frequency:    5.5207306571
  - # 7
    frequency:    5.5207306571
  - # 8
    frequency:    6.5987381465
  - # 9
    frequency:    9.5730495124
  - # 10
    frequency:    9.6442243075
  - # 11
    frequency:    9.6442243075
  - # 12
    frequency:   13.7977477631
  - # 13
    frequency:   14.1185638424
  - # 14
    frequency:   14.1185638424
  - # 15
    frequency:   19.1883146930

- q-position: [    0.0000000,    0.2500000,    0.0000000 ]
  band:
  - # 1
    frequency:   -1.1440123951
  - # 2
    frequency:   -1.1440123951
  - # 3
    frequency:    2.8130371566
  - # 4
    frequency:    2.8130371566
  - # 5
    frequency:    3.4307643746
  - # 6
    frequency:    5.5869672661
  - # 7
    frequency:    5.5869672661
  - # 8
    frequency:    6.7583075728
  - # 9
    frequency:    9.5950631033
  - # 10
    frequency:    9.6820319155
  - # 11
    frequency:    9.6820319155
  - # 12
    frequency:   13.8990521789
  - # 13
    frequency:   14.0836593932
  - # 14
    frequency:   14.0836593932
  - # 15
    frequency:   19.1958622507

- q-position: [    0.0000000,    0.2666667,    0.0000000 ]
  band:
  - # 1
    frequency:   -1.0103843807
  - # 2
    frequency:   -1.0103843807
  - # 3
    frequency:    2.8954023994
  - # 4
    frequency:    2.8954023994
  - # 5
    frequency:    3.5801627462
  - # 6
    frequency:    5.6563921387
  - # 7
    frequency:    5.6563921387
  - # 8
    frequency:    6.9118856159
  - # 9
    frequency:    9.6168725451
  - # 10
    frequency:    9.7215503295
  - # 11
    frequency:    9.7215503295
  - # 12
    frequency:   13.9985054177
  - # 13
    frequency:   14.0475065558
  - # 14
    frequency:   14.0475065558
  - # 15
    frequency:   19.1927306066

- q-position: [    0.0000000,    0.2833333,    0.0000000 ]
  band:
  - # 1
    frequency:   -0.8549323975
  - # 2
    frequency:   -0.8549323975
  - # 3
    frequency:    2.9655769802
  - # 4
    frequency:    2.9655769802
  - # 5
    frequency:    3.7207223264
  - # 6
    frequency:    5.7278527275
  - # 7
    frequency:    5.7278527275
  - # 8
    frequency:    7.0587210715
  - # 9
    frequency:    9.6382435900
  - # 10
    frequency:    9.7624441231
  - # 11
    frequency:    9.7624441231
  - # 12
    frequency:   14.0104386414
  - # 13
    frequency:   14.0104386414
  - # 14
    frequency:   14.0938369122
  - # 15
    frequency:   19.1798399478

- q-position: [    0.0000000,    0.3000000,    0.0000000 ]
  band:
  - # 1
    frequency:   -0.6645772150
  - # 2
    frequency:   -0.6645772150
  - # 3
    frequency:    3.0243591873
  - # 4
    frequency:    3.0243591873
  - # 5
    frequency:    3.8519697978
  - # 6
    frequency:    5.8000723555
  - # 7
    frequency:    5.8000723555
  - # 8
    frequency:    7.1983309989
  - # 9
    frequency:    9.6589531767
  - # 10
    frequency:    9.8043071826
  - # 11
    frequency:    9.8043071826
  - # 12
    frequency:   13.9728375420
  - # 13
    frequency:   13.9728375420
  - # 14
    frequency:   14.1825138902
  - # 15
    frequency:   19.1588412178

- q-position: [    0.0000000,    0.3166667,    0.0000000 ]
  band:
  - # 1
    frequency:   -0.3951553984
  - # 2
    frequency:   -0.3951553984
  - # 3
    frequency:    3.0727275389
  - # 4
    frequency:    3.0727275389
  - # 5
    frequency:    3.9733360424
  - # 6
    frequency:    5.8717221025
  - # 7
    frequency:    5.8717221025
  - # 8
    frequency:    7.3303785050
  - # 9
    frequency:    9.6787913287
  - # 10
    frequency:    9.8466581283
  - # 11
    frequency:    9.8466581283
  - # 12
    frequency:   13.9351352286
  - # 13
    frequency:   13.9351352286
  - # 14
    frequency:   14.2620304029
  - # 15
    frequency:   19.1319155049

- q-position: [    0.0000000,    0.3333333,    0.0000000 ]
  band:
  - # 1
    frequency:    0.3498856943
  - # 2
    frequency:    0.3498856943
  - # 3
    frequency:    3.1117704456
  - # 4
    frequency:    3.1117704456
  - # 5
    frequency:    4.0842407256
  - # 6
    frequency:    5.9414889033
  - # 7
    frequency:    5.9414889033
  - # 8
    frequency:    7.4545570542
  - # 9
    frequency:    9.6975626712
  - # 10
    frequency:    9.8889388546
  - # 11
    frequency:    9.8889388546
  - # 12
    frequency:   13.8978135126
  - # 13
    frequency:   13.8978135126
  - # 14
    frequency:   14.3302280197
  - # 15
    frequency:   19.1015143860

- q-position: [    0.0000000,    0.3500000,    0.0000000 ]
  band:
  - # 1
    frequency:    0.6250064240
  - # 2
    frequency:    0.6250064240
  - # 3
    frequency:    3.1426266673
  - # 4
    frequency:    3.1426266673
  - # 5
    frequency:    4.1841747036
  - # 6
    frequency:    6.0081317587
  - # 7
    frequency:    6.0081317587
  - # 8
    frequency:    7.5704947068
  - # 9
    frequency:    9.7150875860
  - # 10
    frequency:    9.9305172779
  - # 11
    frequency:    9.9305172779
  - # 12
    frequency:   13.8614014095
  - # 13
    frequency:   13.8614014095
  - # 14
    frequency:   14.3856000962
  - # 15
    frequency:   19.0700745720

- q-position: [    0.0000000,    0.3666667,    0.0000000 ]
  band:
  - # 1
    frequency:    0.8030674083
  - # 2
    frequency:    0.8030674083
  - # 3
    frequency:    3.1664390389
  - # 4
    frequency:    3.1664390389
  - # 5
    frequency:    4.2727705096
  - # 6
    frequency:    6.0705220763
  - # 7
    frequency:    6.0705220763
  - # 8
    frequency:    7.6776881155
  - # 9
    frequency:    9.7312030382
  - # 10
    frequency:    9.9706953305
  - # 11
    frequency:    9.9706953305
  - # 12
    frequency:   13.8264693602
  - # 13
    frequency:   13.8264693602
  - # 14
    frequency:   14.4275277638
  - # 15
    frequency:   19.0397502699

- q-position: [    0.0000000,    0.3833333,    0.0000000 ]
  band:
  - # 1
    frequency:    0.9389214814
  - # 2
    frequency:    0.9389214814
  - # 3
    frequency:    3.1843204337
  - # 4
    frequency:    3.1843204337
  - # 5
    frequency:    4.3498514100
  - # 6
    frequency:    6.1276678248
  - # 7
    frequency:    6.1276678248
  - # 8
    frequency:    7.7754721675
  - # 9
    frequency:    9.7457631151
  - # 10
    frequency:   10.0087230355
  - # 11
    frequency:   10.0087230355
  - # 12
    frequency:   13.7936195628
  - # 13
    frequency:   13.7936195628
  - # 14
    frequency:   14.4564001507
  - # 15
    frequency:   19.0122092305

- q-position: [    0.0000000,    0.4000000,    0.0000000 ]
  band:
  - # 1
    frequency:    1.0473018588
  - # 2
    frequency:    1.0473018588
  - # 3
    frequency:    3.1973286982
  - # 4
    frequency:    3.1973286982
  - # 5
    frequency:    4.4154515738
  - # 6
    frequency:    6.1787236395
  - # 7
    frequency:    6.1787236395
  - # 8
    frequency:    7.8630266778
  - # 9
    frequency:    9.7586393223
  - # 10
    frequency:   10.0438191398
  - # 11
    frequency:   10.0438191398
  - # 12
    frequency:   13.7634717924
  - # 13
    frequency:   13.7634717924
  - # 14
    frequency:   14.4735883100
  - # 15
    frequency:   18.9885279631

- q-position: [    0.0000000,    0.4166667,    0.0000000 ]
  band:
  - # 1
    frequency:    1.1344552850
  - # 2
    frequency:    1.1344552850
  - # 3
    frequency:    3.2064464612
  - # 4
    frequency:    3.2064464612
  - # 5
    frequency:    4.4698038723
  - # 6
    frequency:    6.2229901969
  - # 7
    frequency:    6.2229901969
  - # 8
    frequency:    7.9394166538
  - # 9
    frequency:    9.7697206884
  - # 10
    frequency:   10.0751982193
  - # 11
    frequency:   10.0751982193
  - # 12
    frequency:   13.7366444089
  - # 13
    frequency:   13.7366444089
  - # 14
    frequency:   14.4812710970
  - # 15
    frequency:   18.9691982861

- q-position: [    0.0000000,    0.4333333,    0.0000000 ]
  band:
  - # 1
    frequency:    1.2035097166
  - # 2
    frequency:    1.2035097166
  - # 3
    frequency:    3.2125620782
  - # 4
    frequency:    3.2125620782
  - # 5
    frequency:    4.5132970216
  - # 6
    frequency:    6.2599064168
  - # 7
    frequency:    6.2599064168
  - # 8
    frequency:    8.0036580212
  - # 9
    frequency:    9.7789137282
  - # 10
    frequency:   10.1021034129
  - # 11
    frequency:   10.1021034129
  - # 12
    frequency:   13.7137308128
  - # 13
    frequency:   13.7137308128
  - # 14
    frequency:   14.4821432767
  - # 15
    frequency:   18.9542293433

- q-position: [    0.0000000,    0.4500000,    0.0000000 ]
  band:
  - # 1
    frequency:    1.2561455819
  - # 2
    frequency:    1.2561455819
  - # 3
    frequency:    3.2164492223
  - # 4
    frequency:    3.2164492223
  - # 5
    frequency:    4.5464089806
  - # 6
    frequency:    6.2890377427
  - # 7
    frequency:    6.2890377427
  - # 8
    frequency:    8.0547974216
  - # 9
    frequency:    9.7861423139
  - # 10
    frequency:   10.1238430244
  - # 11
    frequency:   10.1238430244
  - # 12
    frequency:   13.6952723914
  - # 13
    frequency:   13.6952723914
  - # 14
    frequency:   14.4790592575
  - # 15
    frequency:   18.9433083205

- q-position: [    0.0000000,    0.4666667,    0.0000000 ]
  band:
  - # 1
    frequency:    1.2932818552
  - # 2
    frequency:    1.2932818552
  - # 3
    frequency:    3.2187444626
  - # 4
    frequency:    3.2187444626
  - # 5
    frequency:    4.5696274671
  - # 6
    frequency:    6.3100632035
  - # 7
    frequency:    6.3100632035
  - # 8
    frequency:    8.0919936940
  - # 9
    frequency:    9.7913474997
  - # 10
    frequency:   10.1398282681
  - # 11
    frequency:   10.1398282681
  - # 12
    frequency:   13.6817299104
  - # 13
    frequency:   13.6817299104
  - # 14
    frequency:   14.4746720214
  - # 15
    frequency:   18.9359770865

- q-position: [    0.0000000,    0.4833333,    0.0000000 ]
  band:
  - # 1
    frequency:    1.3154083632
  - # 2
    frequency:    1.3154083632
  - # 3
    frequency:    3.2199242029
  - # 4
    frequency:    3.2199242029
  - # 5
    frequency:    4.5833703543
  - # 6
    frequency:    6.3227633616
  - # 7
    frequency:    6.3227633616
  - # 8
    frequency:    8.1145901433
  - # 9
    frequency:    9.7944873408
  - # 10
    frequency:   10.1496086327
  - # 11
    frequency:   10.1496086327
  - # 12
    frequency:   13.6734561380
  - # 13
    frequency:   13.6734561380
  - # 14
    frequency:   14.4711170597
  - # 15
    frequency:   18.9317899082

- q-position: [    0.0000000,    0.5000000,    0.0000000 ]
  band:
  - # 1
    frequency:    1.3227607071
  - # 2
    frequency:    1.3227607071
  - # 3
    frequency:    3.2202840260
  - # 4
    frequency:    3.2202840260
  - # 5
    frequency:    4.5879183802
  - # 6
    frequency:    6.3270106823
  - # 7
    frequency:    6.3270106823
  - # 8
    frequency:    8.1221698939
  - # 9
    frequency:    9.7955367392
  - # 10
    frequency:   10.1529009613
  - # 11
    frequency:   10.1529009613
  - # 12
    frequency:   13.6706729634
  - # 13
    frequency:   13.6706729634
  - # 14
    frequency:   14.4697733924
  - # 15
    frequency:   18.9304318047

- q-position: [    0.0166667,    0.5000000,    0.0000000 ]
  band:
  - # 1
    frequency:    1.3267432877
  - # 2
    frequency:    1.5167794345
  - # 3
    frequency:    3.2202990528
  - # 4
    frequency:    3.2209631860
  - # 5
    frequency:    4.6000163323
  - # 6
    frequency:    6.3362521062
  - # 7
    frequency:    6.3393127030
  - # 8
    frequency:    8.1157911252
  - # 9
    frequency:    9.7474610347
  - # 10
    frequency:   10.1532581769
  - # 11
    frequency:   10.2033253959
  - # 12
    frequency:   13.6613978281
  - # 13
    frequency:   13.6679606963
  - # 14
    frequency:   14.4655874385
  - # 15
    frequency:   18.9386425754

- q-position: [    0.0333333,    0.5000000,    0.0000000 ]
  band:
  - # 1
    frequency:    1.3385285273
  - # 2
    frequency:    1.9660201548
  - # 3
    frequency:    3.2203439326
  - # 4
    frequency:    3.2229737023
  - # 5
    frequency:    4.6414915085
  - # 6
    frequency:    6.3638628002
  - # 7
    frequency:    6.3761046519
  - # 8
    frequency:    8.0965277295
  - # 9
    frequency:    9.6455601407
  - # 10
    frequency:   10.1543259091
  - # 11
    frequency:   10.3123677118
  - # 12
    frequency:   13.6337664570
  - # 13
    frequency:   13.6598229276
  - # 14
    frequency:   14.4530650692
  - # 15
    frequency:   18.9636796748

- q-position: [    0.0500000,    0.5000000,    0.0000000 ]
  band:
  - # 1
    frequency:    1.3576492191
  - # 2
    frequency:    2.4821009077
  - # 3
    frequency:    3.2204180680
  - # 4
    frequency:    3.2263152581
  - # 5
    frequency:    4.7294226545
  - # 6
    frequency:    6.4095059074
  - # 7
    frequency:    6.4371982323
  - # 8
    frequency:    8.0640224571
  - # 9
    frequency:    9.5301309822
  - # 10
    frequency:   10.1560924558
  - # 11
    frequency:   10.4399996542
  - # 12
    frequency:   13.5883235024
  - # 13
    frequency:   13.6462568688
  - # 14
    frequency:   14.4323971735
  - # 15
    frequency:   19.0066408164

- q-position: [    0.0666667,    0.5000000,    0.0000000 ]
  band:
  - # 1
    frequency:    1.3833890330
  - # 2
    frequency:    2.9457591085
  - # 3
    frequency:    3.2205204809
  - # 4
    frequency:    3.2318452653
  - # 5
    frequency:    4.8938455064
  - # 6
    frequency:    6.4726326753
  - # 7
    frequency:    6.5228294186
  - # 8
    frequency:    8.0177636980
  - # 9
    frequency:    9.4149004639
  - # 10
    frequency:   10.1585384547
  - # 11
    frequency:   10.5728811583
  - # 12
    frequency:   13.5258927970
  - # 13
    frequency:   13.6272582490
  - # 14
    frequency:   14.4041253444
  - # 15
    frequency:   19.0689920137

- q-position: [    0.0833333,    0.5000000,    0.0000000 ]
  band:
  - # 1
    frequency:    1.4148597227
  - # 2
    frequency:    3.2205924095
  - # 3
    frequency:    3.2206498371
  - # 4
    frequency:    3.3047866156
  - # 5
    frequency:    5.1621796230
  - # 6
    frequency:    6.5525006276
  - # 7
    frequency:    6.6346551977
  - # 8
    frequency:    7.9572176391
  - # 9
    frequency:    9.3052756193
  - # 10
    frequency:   10.1616370940
  - # 11
    frequency:   10.7060107853
  - # 12
    frequency:   13.4475607761
  - # 13
    frequency:   13.6028218838
  - # 14
    frequency:   14.3693122212
  - # 15
    frequency:   19.1521069080

- q-position: [    0.1000000,    0.5000000,    0.0000000 ]
  band:
  - # 1
    frequency:    1.4510834269
  - # 2
    frequency:    3.2208044782
  - # 3
    frequency:    3.2334271561
  - # 4
    frequency:    3.5041390408
  - # 5
    frequency:    5.5203783515
  - # 6
    frequency:    6.6481973496
  - # 7
    frequency:    6.7775657823
  - # 8
    frequency:    7.8820048926
  - # 9
    frequency:    9.2040503390
  - # 10
    frequency:   10.1653544034
  - # 11
    frequency:   10.8368851736
  - # 12
    frequency:   13.3547791148
  - # 13
    frequency:   13.5729424784
  - # 14
    frequency:   14.3295582778
  - # 15
    frequency:   19.2567748091

- q-position: [    0.1166667,    0.5000000,    0.0000000 ]
  band:
  - # 1
    frequency:    1.4910661232
  - # 2
    frequency:    3.2209824600
  - # 3
    frequency:    3.2378175509
  - # 4
    frequency:    3.6113706672
  - # 5
    frequency:    5.9082112419
  - # 6
    frequency:    6.7586683360
  - # 7
    frequency:    6.9621328820
  - # 8
    frequency:    7.7920777603
  - # 9
    frequency:    9.1127730413
  - # 10
    frequency:   10.1696496249
  - # 11
    frequency:   10.9640039766
  - # 12
    frequency:   13.2495708759
  - # 13
    frequency:   13.5376156772
  - # 14
    frequency:   14.2868201115
  - # 15
    frequency:   19.3827902519

- q-position: [    0.1333333,    0.5000000,    0.0000000 ]
  band:
  - # 1
    frequency:    1.5338539446
  - # 2
    frequency:    3.2211815938
  - # 3
    frequency:    3.2406888435
  - # 4
    frequency:    3.6598881362
  - # 5
    frequency:    6.2609568581
  - # 6
    frequency:    6.8827470992
  - # 7
    frequency:    7.2030686910
  - # 8
    frequency:    7.6878316183
  - # 9
    frequency:    9.0321255561
  - # 10
    frequency:   10.1744756575
  - # 11
    frequency:   11.0864325785
  - # 12
    frequency:   13.1347418377
  - # 13
    frequency:   13.4968393761
  - # 14
    frequency:   14.2430930411
  - # 15
    frequency:   19.5287147094

- q-position: [    0.1500000,    0.5000000,    0.0000000 ]
  band:
  - # 1
    frequency:    1.5785699246
  - # 2
    frequency:    3.2213994886
  - # 3
    frequency:    3.2422031145
  - # 4
    frequency:    3.6753340263
  - # 5
    frequency:    6.5438473007
  - # 6
    frequency:    7.0191856600
  - # 7
    frequency:    7.5030276654
  - # 8
    frequency:    7.5701094848
  - # 9
    frequency:    8.9621148824
  - # 10
    frequency:   10.1797795726
  - # 11
    frequency:   11.2036626928
  - # 12
    frequency:   13.0139705515
  - # 13
    frequency:   13.4506153287
  - # 14
    frequency:   14.2000855730
  - # 15
    frequency:   19.6918550167

- q-position: [    0.1666667,    0.5000000,    0.0000000 ]
  band:
  - # 1
    frequency:    1.6244329939
  - # 2
    frequency:    3.2216335932
  - # 3
    frequency:    3.2422828770
  - # 4
    frequency:    3.6719061361
  - # 5
    frequency:    6.7629327247
  - # 6
    frequency:    7.1666836597
  - # 7
    frequency:    7.4400609926
  - # 8
    frequency:    7.8381038926
  - # 9
    frequency:    8.9022677103
  - # 10
    frequency:   10.1855031944
  - # 11
    frequency:   11.3155614548
  - # 12
    frequency:   12.8916995765
  - # 13
    frequency:   13.3989510925
  - # 14
    frequency:   14.1589971619
  - # 15
    frequency:   19.8684490715

- q-position: [    0.1833333,    0.5000000,    0.0000000 ]
  band:
  - # 1
    frequency:    1.6707632185
  - # 2
    frequency:    3.2218812349
  - # 3
    frequency:    3.2409265103
  - # 4
    frequency:    3.6573799208
  - # 5
    frequency:    6.9407872444
  - # 6
    frequency:    7.2990931972
  - # 7
    frequency:    7.3239146088
  - # 8
    frequency:    8.1761277249
  - # 9
    frequency:    8.8518336350
  - # 10
    frequency:   10.1915837388
  - # 11
    frequency:   11.4223341462
  - # 12
    frequency:   12.7728406354
  - # 13
    frequency:   13.3418623864
  - # 14
    frequency:   14.1204386330
  - # 15
    frequency:   20.0540047434

- q-position: [    0.2000000,    0.5000000,    0.0000000 ]
  band:
  - # 1
    frequency:    1.7169777623
  - # 2
    frequency:    3.2221396550
  - # 3
    frequency:    3.2382706185
  - # 4
    frequency:    3.6362035409
  - # 5
    frequency:    7.0941188014
  - # 6
    frequency:    7.1486722137
  - # 7
    frequency:    7.4895481615
  - # 8
    frequency:    8.4954717251
  - # 9
    frequency:    8.8100068567
  - # 10
    frequency:   10.1979545044
  - # 11
    frequency:   11.5244661703
  - # 12
    frequency:   12.6623752938
  - # 13
    frequency:   13.2793759690
  - # 14
    frequency:   14.0844679023
  - # 15
    frequency:   20.2437137588

- q-position: [    0.2166667,    0.5000000,    0.0000000 ]
  band:
  - # 1
    frequency:    1.7625815246
  - # 2
    frequency:    3.2224060383
  - # 3
    frequency:    3.2345966889
  - # 4
    frequency:    3.6110612585
  - # 5
    frequency:    6.9903037916
  - # 6
    frequency:    7.2318443661
  - # 7
    frequency:    7.6622676891
  - # 8
    frequency:    8.7684163097
  - # 9
    frequency:    8.7926061263
  - # 10
    frequency:   10.2045456074
  - # 11
    frequency:   11.6226277404
  - # 12
    frequency:   12.5649471450
  - # 13
    frequency:   13.2115331985
  - # 14
    frequency:   14.0506890993
  - # 15
    frequency:   20.4328611771

- q-position: [    0.2333333,    0.5000000,    0.0000000 ]
  band:
  - # 1
    frequency:    1.8071554645
  - # 2
    frequency:    3.2226775398
  - # 3
    frequency:    3.2303081666
  - # 4
    frequency:    3.5836525172
  - # 5
    frequency:    6.8255773208
  - # 6
    frequency:    7.3585585463
  - # 7
    frequency:    7.8407827574
  - # 8
    frequency:    8.7467685601
  - # 9
    frequency:    9.0419411205
  - # 10
    frequency:   10.2112847523
  - # 11
    frequency:   11.7175398321
  - # 12
    frequency:   12.4845127963
  - # 13
    frequency:   13.1383945163
  - # 14
    frequency:   14.0183734109
  - # 15
    frequency:   20.6171681941

- q-position: [    0.2500000,    0.5000000,    0.0000000 ]
  band:
  - # 1
    frequency:    1.8503446363
  - # 2