natom: 1715
displacements:
- atom:    1
  direction:
    [   1.0000000000000000,  0.0000000000000000,  0.0000000000000000 ]
  displacement:
    [   0.0100000000000000,  0.0000000000000000,  0.0000000000000000 ]
- atom:  344
  direction:
    [   1.0000000000000000,  0.0000000000000000,  0.0000000000000000 ]
  displacement:
    [   0.0100000000000000,  0.0000000000000000,  0.0000000000000000 ]
- atom:  687
  direction:
    [   1.0000000000000000,  0.0000000000000000,  1.0000000000000000 ]
  displacement:
    [   0.0070710678118655,  0.0000000000000000,  0.0070710678118655 ]
lattice:
- [    27.807564016470000,     0.000000000000000,     0.000000000000000 ] # a
- [     0.000000000000000,    27.807564016470000,     0.000000000000000 ] # b
- [     0.000000000000000,     0.000000000000000,    27.807564016470000 ] # c
points:
- symbol: Ba # 1
  coordinates: [  0.000000000000000,  0.000000000000000,  0.000000000000000 ]
  mass: 137.327000
- symbol: Ba # 2
  coordinates: [  0.142857142857143,  0.000000000000000,  0.000000000000000 ]
  mass: 137.327000
- symbol: Ba # 3
  coordinates: [  0.285714285714286,  0.000000000000000,  0.000000000000000 ]
  mass: 137.327000
- symbol: Ba # 4
  coordinates: [  0.428571428571429,  0.000000000000000,  0.000000000000000 ]
  mass: 137.327000
- symbol: Ba # 5
  coordinates: [  0.571428571428571,  0.000000000000000,  0.000000000000000 ]
  mass: 137.327000
- symbol: Ba # 6
  coordinates: [  0.714285714285714,  0.000000000000000,  0.000000000000000 ]
  mass: 137.327000
- symbol: Ba # 7
  coordinates: [  0.857142857142857,  0.000000000000000,  0.000000000000000 ]
  mass: 137.327000
- symbol: Ba # 8
  coordinates: [  0.000000000000000,  0.142857142857143,  0.000000000000000 ]
  mass: 137.327000
- symbol: Ba # 9
  coordinates: [  0.142857142857143,  0.142857142857143,  0.000000000000000 ]
  mass: 137.327000
- symbol: Ba # 10
  coordinates: [  0.285714285714286,  0.142857142857143,  0.000000000000000 ]
  mass: 137.327000
- symbol: Ba # 11
  coordinates: [  0.428571428571429,  0.142857142857143,  0.000000000000000 ]
  mass: 137.327000
- symbol: Ba # 12
  coordinates: [  0.571428571428571,  0.142857142857143,  0.000000000000000 ]
  mass: 137.327000
- symbol: Ba # 13
  coordinates: [  0.714285714285714,  0.142857142857143,  0.000000000000000 ]
  mass: 137.327000
- symbol: Ba # 14
  coordinates: [  0.857142857142857,  0.142857142857143,  0.000000000000000 ]
  mass: 137.327000
- symbol: Ba # 15
  coordinates: [  0.000000000000000,  0.285714285714286,  0.000000000000000 ]
  mass: 137.327000
- symbol: Ba # 16
  coordinates: [  0.142857142857143,  0.285714285714286,  0.000000000000000 ]
  mass: 137.327000
- symbol: Ba # 17
  coordinates: [  0.285714285714286,  0.285714285714286,  0.000000000000000 ]
  mass: 137.327000
- symbol: Ba # 18
  coordinates: [  0.428571428571429,  0.285714285714286,  0.000000000000000 ]
  mass: 137.327000
- symbol: Ba # 19
  coordinates: [  0.571428571428571,  0.285714285714286,  0.000000000000000 ]
  mass: 137.327000
- symbol: Ba # 20
  coordinates: [  0.714285714285714,  0.285714285714286,  0.000000000000000 ]
  mass: 137.327000
- symbol: Ba # 21
  coordinates: [  0.857142857142857,  0.285714285714286,  0.000000000000000 ]
  mass: 137.327000
- symbol: Ba # 22
  coordinates: [  0.000000000000000,  0.428571428571429,  0.000000000000000 ]
  mass: 137.327000
- symbol: Ba # 23
  coordinates: [  0.142857142857143,  0.428571428571429,  0.000000000000000 ]
  mass: 137.327000
- symbol: Ba # 24
  coordinates: [  0.285714285714286,  0.428571428571429,  0.000000000000000 ]
  mass: 137.327000
- symbol: Ba # 25
  coordinates: [  0.428571428571429,  0.428571428571429,  0.000000000000000 ]
  mass: 137.327000
- symbol: Ba # 26
  coordinates: [  0.571428571428571,  0.428571428571429,  0.000000000000000 ]
  mass: 137.327000
- symbol: Ba # 27
  coordinates: [  0.714285714285714,  0.428571428571429,  0.000000000000000 ]
  mass: 137.327000
- symbol: Ba # 28
  coordinates: [  0.857142857142857,  0.428571428571429,  0.000000000000000 ]
  mass: 137.327000
- symbol: Ba # 29
  coordinates: [  0.000000000000000,  0.571428571428571,  0.000000000000000 ]
  mass: 137.327000
- symbol: Ba # 30
  coordinates: [  0.142857142857143,  0.571428571428571,  0.000000000000000 ]
  mass: 137.327000
- symbol: Ba # 31
  coordinates: [  0.285714285714286,  0.571428571428571,  0.000000000000000 ]
  mass: 137.327000
- symbol: Ba # 32
  coordinates: [  0.428571428571429,  0.571428571428571,  0.000000000000000 ]
  mass: 137.327000
- symbol: Ba # 33
  coordinates: [  0.571428571428571,  0.571428571428571,  0.000000000000000 ]
  mass: 137.327000
- symbol: Ba # 34
  coordinates: [  0.714285714285714,  0.571428571428571,  0.000000000000000 ]
  mass: 137.327000
- symbol: Ba # 35
  coordinates: [  0.857142857142857,  0.571428571428571,  0.000000000000000 ]
  mass: 137.327000
- symbol: Ba # 36
  coordinates: [  0.000000000000000,  0.714285714285714,  0.000000000000000 ]
  mass: 137.327000
- symbol: Ba # 37
  coordinates: [  0.142857142857143,  0.714285714285714,  0.000000000000000 ]
  mass: 137.327000
- symbol: Ba # 38
  coordinates: [  0.285714285714286,  0.714285714285714,  0.000000000000000 ]
  mass: 137.327000
- symbol: Ba # 39
  coordinates: [  0.428571428571429,  0.714285714285714,  0.000000000000000 ]
  mass: 137.327000
- symbol: Ba # 40
  coordinates: [  0.571428571428571,  0.714285714285714,  0.000000000000000 ]
  mass: 137.327000
- symbol: Ba # 41
  coordinates: [  0.714285714285714,  0.714285714285714,  0.000000000000000 ]
  mass: 137.327000
- symbol: Ba # 42
  coordinates: [  0.857142857142857,  0.714285714285714,  0.000000000000000 ]
  mass: 137.327000
- symbol: Ba # 43
  coordinates: [  0.000000000000000,  0.857142857142857,  0.000000000000000 ]
  mass: 137.327000
- symbol: Ba # 44
  coordinates: [  0.142857142857143,  0.857142857142857,  0.000000000000000 ]
  mass: 137.327000
- symbol: Ba # 45
  coordinates: [  0.285714285714286,  0.857142857142857,  0.000000000000000 ]
  mass: 137.327000
- symbol: Ba # 46
  coordinates: [  0.428571428571429,  0.857142857142857,  0.000000000000000 ]
  mass: 137.327000
- symbol: Ba # 47
  coordinates: [  0.571428571428571,  0.857142857142857,  0.000000000000000 ]
  mass: 137.327000
- symbol: Ba # 48
  coordinates: [  0.714285714285714,  0.857142857142857,  0.000000000000000 ]
  mass: 137.327000
- symbol: Ba # 49
  coordinates: [  0.857142857142857,  0.857142857142857,  0.000000000000000 ]
  mass: 137.327000
- symbol: Ba # 50
  coordinates: [  0.000000000000000,  0.000000000000000,  0.142857142857143 ]
  mass: 137.327000
- symbol: Ba # 51
  coordinates: [  0.142857142857143,  0.000000000000000,  0.142857142857143 ]
  mass: 137.327000
- symbol: Ba # 52
  coordinates: [  0.285714285714286,  0.000000000000000,  0.142857142857143 ]
  mass: 137.327000
- symbol: Ba # 53
  coordinates: [  0.428571428571429,  0.000000000000000,  0.142857142857143 ]
  mass: 137.327000
- symbol: Ba # 54
  coordinates: [  0.571428571428571,  0.000000000000000,  0.142857142857143 ]
  mass: 137.327000
- symbol: Ba # 55
  coordinates: [  0.714285714285714,  0.000000000000000,  0.142857142857143 ]
  mass: 137.327000
- symbol: Ba # 56
  coordinates: [  0.857142857142857,  0.000000000000000,  0.142857142857143 ]
  mass: 137.327000
- symbol: Ba # 57
  coordinates: [  0.000000000000000,  0.142857142857143,  0.142857142857143 ]
  mass: 137.327000
- symbol: Ba # 58
  coordinates: [  0.142857142857143,  0.142857142857143,  0.142857142857143 ]
  mass: 137.327000
- symbol: Ba # 59
  coordinates: [  0.285714285714286,  0.142857142857143,  0.142857142857143 ]
  mass: 137.327000
- symbol: Ba # 60
  coordinates: [  0.428571428571429,  0.142857142857143,  0.142857142857143 ]
  mass: 137.327000
- symbol: Ba # 61
  coordinates: [  0.571428571428571,  0.142857142857143,  0.142857142857143 ]
  mass: 137.327000
- symbol: Ba # 62
  coordinates: [  0.714285714285714,  0.142857142857143,  0.142857142857143 ]
  mass: 137.327000
- symbol: Ba # 63
  coordinates: [  0.857142857142857,  0.142857142857143,  0.142857142857143 ]
  mass: 137.327000
- symbol: Ba # 64
  coordinates: [  0.000000000000000,  0.285714285714286,  0.142857142857143 ]
  mass: 137.327000
- symbol: Ba # 65
  coordinates: [  0.142857142857143,  0.285714285714286,  0.142857142857143 ]
  mass: 137.327000
- symbol: Ba # 66
  coordinates: [  0.285714285714286,  0.285714285714286,  0.142857142857143 ]
  mass: 137.327000
- symbol: Ba # 67
  coordinates: [  0.428571428571429,  0.285714285714286,  0.142857142857143 ]
  mass: 137.327000
- symbol: Ba # 68
  coordinates: [  0.571428571428571,  0.285714285714286,  0.142857142857143 ]
  mass: 137.327000
- symbol: Ba # 69
  coordinates: [  0.714285714285714,  0.285714285714286,  0.142857142857143 ]
  mass: 137.327000
- symbol: Ba # 70
  coordinates: [  0.857142857142857,  0.285714285714286,  0.142857142857143 ]
  mass: 137.327000
- symbol: Ba # 71
  coordinates: [  0.000000000000000,  0.428571428571429,  0.142857142857143 ]
  mass: 137.327000
- symbol: Ba # 72
  coordinates: [  0.142857142857143,  0.428571428571429,  0.142857142857143 ]
  mass: 137.327000
- symbol: Ba # 73
  coordinates: [  0.285714285714286,  0.428571428571429,  0.142857142857143 ]
  mass: 137.327000
- symbol: Ba # 74
  coordinates: [  0.428571428571429,  0.428571428571429,  0.142857142857143 ]
  mass: 137.327000
- symbol: Ba # 75
  coordinates: [  0.571428571428571,  0.428571428571429,  0.142857142857143 ]
  mass: 137.327000
- symbol: Ba # 76
  coordinates: [  0.714285714285714,  0.428571428571429,  0.142857142857143 ]
  mass: 137.327000
- symbol: Ba # 77
  coordinates: [  0.857142857142857,  0.428571428571429,  0.142857142857143 ]
  mass: 137.327000
- symbol: Ba # 78
  coordinates: [  0.000000000000000,  0.571428571428571,  0.142857142857143 ]
  mass: 137.327000
- symbol: Ba # 79
  coordinates: [  0.142857142857143,  0.571428571428571,  0.142857142857143 ]
  mass: 137.327000
- symbol: Ba # 80
  coordinates: [  0.285714285714286,  0.571428571428571,  0.142857142857143 ]
  mass: 137.327000
- symbol: Ba # 81
  coordinates: [  0.428571428571429,  0.571428571428571,  0.142857142857143 ]
  mass: 137.327000
- symbol: Ba # 82
  coordinates: [  0.571428571428571,  0.571428571428571,  0.142857142857143 ]
  mass: 137.327000
- symbol: Ba # 83
  coordinates: [  0.714285714285714,  0.571428571428571,  0.142857142857143 ]
  mass: 137.327000
- symbol: Ba # 84
  coordinates: [  0.857142857142857,  0.571428571428571,  0.142857142857143 ]
  mass: 137.327000
- symbol: Ba # 85
  coordinates: [  0.000000000000000,  0.714285714285714,  0.142857142857143 ]
  mass: 137.327000
- symbol: Ba # 86
  coordinates: [  0.142857142857143,  0.714285714285714,  0.142857142857143 ]
  mass: 137.327000
- symbol: Ba # 87
  coordinates: [  0.285714285714286,  0.714285714285714,  0.142857142857143 ]
  mass: 137.327000
- symbol: Ba # 88
  coordinates: [  0.428571428571429,  0.714285714285714,  0.142857142857143 ]
  mass: 137.327000
- symbol: Ba # 89
  coordinates: [  0.571428571428571,  0.714285714285714,  0.142857142857143 ]
  mass: 137.327000
- symbol: Ba # 90
  coordinates: [  0.714285714285714,  0.714285714285714,  0.142857142857143 ]
  mass: 137.327000
- symbol: Ba # 91
  coordinates: [  0.857142857142857,  0.714285714285714,  0.142857142857143 ]
  mass: 137.327000
- symbol: Ba # 92
  coordinates: [  0.000000000000000,  0.857142857142857,  0.142857142857143 ]
  mass: 137.327000
- symbol: Ba # 93
  coordinates: [  0.142857142857143,  0.857142857142857,  0.142857142857143 ]
  mass: 137.327000
- symbol: Ba # 94
  coordinates: [  0.285714285714286,  0.857142857142857,  0.142857142857143 ]
  mass: 137.327000
- symbol: Ba # 95
  coordinates: [  0.428571428571429,  0.857142857142857,  0.142857142857143 ]
  mass: 137.327000
- symbol: Ba # 96
  coordinates: [  0.571428571428571,  0.857142857142857,  0.142857142857143 ]
  mass: 137.327000
- symbol: Ba # 97
  coordinates: [  0.714285714285714,  0.857142857142857,  0.142857142857143 ]
  mass: 137.327000
- symbol: Ba # 98
  coordinates: [  0.857142857142857,  0.857142857142857,  0.142857142857143 ]
  mass: 137.327000
- symbol: Ba # 99
  coordinates: [  0.000000000000000,  0.000000000000000,  0.285714285714286 ]
  mass: 137.327000
- symbol: Ba # 100
  coordinates: [  0.142857142857143,  0.000000000000000,  0.285714285714286 ]
  mass: 137.327000
- symbol: Ba # 101
  coordinates: [  0.285714285714286,  0.000000000000000,  0.285714285714286 ]
  mass: 137.327000
- symbol: Ba # 102
  coordinates: [  0.428571428571429,  0.000000000000000,  0.285714285714286 ]
  mass: 137.327000
- symbol: Ba # 103
  coordinates: [  0.571428571428571,  0.000000000000000,  0.285714285714286 ]
  mass: 137.327000
- symbol: Ba # 104
  coordinates: [  0.714285714285714,  0.000000000000000,  0.285714285714286 ]
  mass: 137.327000
- symbol: Ba # 105
  coordinates: [  0.857142857142857,  0.000000000000000,  0.285714285714286 ]
  mass: 137.327000
- symbol: Ba # 106
  coordinates: [  0.000000000000000,  0.142857142857143,  0.285714285714286 ]
  mass: 137.327000
- symbol: Ba # 107
  coordinates: [  0.142857142857143,  0.142857142857143,  0.285714285714286 ]
  mass: 137.327000
- symbol: Ba # 108
  coordinates: [  0.285714285714286,  0.142857142857143,  0.285714285714286 ]
  mass: 137.327000
- symbol: Ba # 109
  coordinates: [  0.428571428571429,  0.142857142857143,  0.285714285714286 ]
  mass: 137.327000
- symbol: Ba # 110
  coordinates: [  0.571428571428571,  0.142857142857143,  0.285714285714286 ]
  mass: 137.327000
- symbol: Ba # 111
  coordinates: [  0.714285714285714,  0.142857142857143,  0.285714285714286 ]
  mass: 137.327000
- symbol: Ba # 112
  coordinates: [  0.857142857142857,  0.142857142857143,  0.285714285714286 ]
  mass: 137.327000
- symbol: Ba # 113
  coordinates: [  0.000000000000000,  0.285714285714286,  0.285714285714286 ]
  mass: 137.327000
- symbol: Ba # 114
  coordinates: [  0.142857142857143,  0.285714285714286,  0.285714285714286 ]
  mass: 137.327000
- symbol: Ba # 115
  coordinates: [  0.285714285714286,  0.285714285714286,  0.285714285714286 ]
  mass: 137.327000
- symbol: Ba # 116
  coordinates: [  0.428571428571429,  0.285714285714286,  0.285714285714286 ]
  mass: 137.327000
- symbol: Ba # 117
  coordinates: [  0.571428571428571,  0.285714285714286,  0.285714285714286 ]
  mass: 137.327000
- symbol: Ba # 118
  coordinates: [  0.714285714285714,  0.285714285714286,  0.285714285714286 ]
  mass: 137.327000
- symbol: Ba # 119
  coordinates: [  0.857142857142857,  0.285714285714286,  0.285714285714286 ]
  mass: 137.327000
- symbol: Ba # 120
  coordinates: [  0.000000000000000,  0.428571428571429,  0.285714285714286 ]
  mass: 137.327000
- symbol: Ba # 121
  coordinates: [  0.142857142857143,  0.428571428571429,  0.285714285714286 ]
  mass: 137.327000
- symbol: Ba # 122
  coordinates: [  0.285714285714286,  0.428571428571429,  0.285714285714286 ]
  mass: 137.327000
- symbol: Ba # 123
  coordinates: [  0.428571428571429,  0.428571428571429,  0.285714285714286 ]
  mass: 137.327000
- symbol: Ba # 124
  coordinates: [  0.571428571428571,  0.428571428571429,  0.285714285714286 ]
  mass: 137.327000
- symbol: Ba # 125
  coordinates: [  0.714285714285714,  0.428571428571429,  0.285714285714286 ]
  mass: 137.327000
- symbol: Ba # 126
  coordinates: [  0.857142857142857,  0.428571428571429,  0.285714285714286 ]
  mass: 137.327000
- symbol: Ba # 127
  coordinates: [  0.000000000000000,  0.571428571428571,  0.285714285714286 ]
  mass: 137.327000
- symbol: Ba # 128
  coordinates: [  0.142857142857143,  0.571428571428571,  0.285714285714286 ]
  mass: 137.327000
- symbol: Ba # 129
  coordinates: [  0.285714285714286,  0.571428571428571,  0.285714285714286 ]
  mass: 137.327000
- symbol: Ba # 130
  coordinates: [  0.428571428571429,  0.571428571428571,  0.285714285714286 ]
  mass: 137.327000
- symbol: Ba # 131
  coordinates: [  0.571428571428571,  0.571428571428571,  0.285714285714286 ]
  mass: 137.327000
- symbol: Ba # 132
  coordinates: [  0.714285714285714,  0.571428571428571,  0.285714285714286 ]
  mass: 137.327000
- symbol: Ba # 133
  coordinates: [  0.857142857142857,  0.571428571428571,  0.285714285714286 ]
  mass: 137.327000
- symbol: Ba # 134
  coordinates: [  0.000000000000000,  0.714285714285714,  0.285714285714286 ]
  mass: 137.327000
- symbol: Ba # 135
  coordinates: [  0.142857142857143,  0.714285714285714,  0.285714285714286 ]
  mass: 137.327000
- symbol: Ba # 136
  coordinates: [  0.285714285714286,  0.714285714285714,  0.285714285714286 ]
  mass: 137.327000
- symbol: Ba # 137
  coordinates: [  0.428571428571429,  0.714285714285714,  0.285714285714286 ]
  mass: 137.327000
- symbol: Ba # 138
  coordinates: [  0.571428571428571,  0.714285714285714,  0.285714285714286 ]
  mass: 137.327000
- symbol: Ba # 139
  coordinates: [  0.714285714285714,  0.714285714285714,  0.285714285714286 ]
  mass: 137.327000
- symbol: Ba # 140
  coordinates: [  0.857142857142857,  0.714285714285714,  0.285714285714286 ]
  mass: 137.327000
- symbol: Ba # 141
  coordinates: [  0.000000000000000,  0.857142857142857,  0.285714285714286 ]
  mass: 137.327000
- symbol: Ba # 142
  coordinates: [  0.142857142857143,  0.857142857142857,  0.285714285714286 ]
  mass: 137.327000
- symbol: Ba # 143
  coordinates: [  0.285714285714286,  0.857142857142857,  0.285714285714286 ]
  mass: 137.327000
- symbol: Ba # 144
  coordinates: [  0.428571428571429,  0.857142857142857,  0.285714285714286 ]
  mass: 137.327000
- symbol: Ba # 145
  coordinates: [  0.571428571428571,  0.857142857142857,  0.285714285714286 ]
  mass: 137.327000
- symbol: Ba # 146
  coordinates: [  0.714285714285714,  0.857142857142857,  0.285714285714286 ]
  mass: 137.327000
- symbol: Ba # 147
  coordinates: [  0.857142857142857,  0.857142857142857,  0.285714285714286 ]
  mass: 137.327000
- symbol: Ba # 148
  coordinates: [  0.000000000000000,  0.000000000000000,  0.428571428571429 ]
  mass: 137.327000
- symbol: Ba # 149
  coordinates: [  0.142857142857143,  0.000000000000000,  0.428571428571429 ]
  mass: 137.327000
- symbol: Ba # 150
  coordinates: [  0.285714285714286,  0.000000000000000,  0.428571428571429 ]
  mass: 137.327000
- symbol: Ba # 151
  coordinates: [  0.428571428571429,  0.000000000000000,  0.428571428571429 ]
  mass: 137.327000
- symbol: Ba # 152
  coordinates: [  0.571428571428571,  0.000000000000000,  0.428571428571429 ]
  mass: 137.327000
- symbol: Ba # 153
  coordinates: [  0.714285714285714,  0.000000000000000,  0.428571428571429 ]
  mass: 137.327000
- symbol: Ba # 154
  coordinates: [  0.857142857142857,  0.000000000000000,  0.428571428571429 ]
  mass: 137.327000
- symbol: Ba # 155
  coordinates: [  0.000000000000000,  0.142857142857143,  0.428571428571429 ]
  mass: 137.327000
- symbol: Ba # 156
  coordinates: [  0.142857142857143,  0.142857142857143,  0.428571428571429 ]
  mass: 137.327000
- symbol: Ba # 157
  coordinates: [  0.285714285714286,  0.142857142857143,  0.428571428571429 ]
  mass: 137.327000
- symbol: Ba # 158
  coordinates: [  0.428571428571429,  0.142857142857143,  0.428571428571429 ]
  mass: 137.327000
- symbol: Ba # 159
  coordinates: [  0.571428571428571,  0.142857142857143,  0.428571428571429 ]
  mass: 137.327000
- symbol: Ba # 160
  coordinates: [  0.714285714285714,  0.142857142857143,  0.428571428571429 ]
  mass: 137.327000
- symbol: Ba # 161
  coordinates: [  0.857142857142857,  0.142857142857143,  0.428571428571429 ]
  mass: 137.327000
- symbol: Ba # 162
  coordinates: [  0.000000000000000,  0.285714285714286,  0.428571428571429 ]
  mass: 137.327000
- symbol: Ba # 163
  coordinates: [  0.142857142857143,  0.285714285714286,  0.428571428571429 ]
  mass: 137.327000
- symbol: Ba # 164
  coordinates: [  0.285714285714286,  0.285714285714286,  0.428571428571429 ]
  mass: 137.327000
- symbol: Ba # 165
  coordinates: [  0.428571428571429,  0.285714285714286,  0.428571428571429 ]
  mass: 137.327000
- symbol: Ba # 166
  coordinates: [  0.571428571428571,  0.285714285714286,  0.428571428571429 ]
  mass: 137.327000
- symbol: Ba # 167
  coordinates: [  0.714285714285714,  0.285714285714286,  0.428571428571429 ]
  mass: 137.327000
- symbol: Ba # 168
  coordinates: [  0.857142857142857,  0.285714285714286,  0.428571428571429 ]
  mass: 137.327000
- symbol: Ba # 169
  coordinates: [  0.000000000000000,  0.428571428571429,  0.428571428571429 ]
  mass: 137.327000
- symbol: Ba # 170
  coordinates: [  0.142857142857143,  0.428571428571429,  0.428571428571429 ]
  mass: 137.327000
- symbol: Ba # 171
  coordinates: [  0.285714285714286,  0.428571428571429,  0.428571428571429 ]
  mass: 137.327000
- symbol: Ba # 172
  coordinates: [  0.428571428571429,  0.428571428571429,  0.428571428571429 ]
  mass: 137.327000
- symbol: Ba # 173
  coordinates: [  0.571428571428571,  0.428571428571429,  0.428571428571429 ]
  mass: 137.327000
- symbol: Ba # 174
  coordinates: [  0.714285714285714,  0.428571428571429,  0.428571428571429 ]
  mass: 137.327000
- symbol: Ba # 175
  coordinates: [  0.857142857142857,  0.428571428571429,  0.428571428571429 ]
  mass: 137.327000
- symbol: Ba # 176
  coordinates: [  0.000000000000000,  0.571428571428571,  0.428571428571429 ]
  mass: 137.327000
- symbol: Ba # 177
  coordinates: [  0.142857142857143,  0.571428571428571,  0.428571428571429 ]
  mass: 137.327000
- symbol: Ba # 178
  coordinates: [  0.285714285714286,  0.571428571428571,  0.428571428571429 ]
  mass: 137.327000
- symbol: Ba # 179
  coordinates: [  0.428571428571429,  0.571428571428571,  0.428571428571429 ]
  mass: 137.327000
- symbol: Ba # 180
  coordinates: [  0.571428571428571,  0.571428571428571,  0.428571428571429 ]
  mass: 137.327000
- symbol: Ba # 181
  coordinates: [  0.714285714285714,  0.571428571428571,  0.428571428571429 ]
  mass: 137.327000
- symbol: Ba # 182
  coordinates: [  0.857142857142857,  0.571428571428571,  0.428571428571429 ]
  mass: 137.327000
- symbol: Ba # 183
  coordinates: [  0.000000000000000,  0.714285714285714,  0.428571428571429 ]
  mass: 137.327000
- symbol: Ba # 184
  coordinates: [  0.142857142857143,  0.714285714285714,  0.428571428571429 ]
  mass: 137.327000
- symbol: Ba # 185
  coordinates: [  0.285714285714286,  0.714285714285714,  0.428571428571429 ]
  mass: 137.327000
- symbol: Ba # 186
  coordinates: [  0.428571428571429,  0.714285714285714,  0.428571428571429 ]
  mass: 137.327000
- symbol: Ba # 187
  coordinates: [  0.571428571428571,  0.714285714285714,  0.428571428571429 ]
  mass: 137.327000
- symbol: Ba # 188
  coordinates: [  0.714285714285714,  0.714285714285714,  0.428571428571429 ]
  mass: 137.327000
- symbol: Ba # 189
  coordinates: [  0.857142857142857,  0.714285714285714,  0.428571428571429 ]
  mass: 137.327000
- symbol: Ba # 190
  coordinates: [  0.000000000000000,  0.857142857142857,  0.428571428571429 ]
  mass: 137.327000
- symbol: Ba # 191
  coordinates: [  0.142857142857143,  0.857142857142857,  0.428571428571429 ]
  mass: 137.327000
- symbol: Ba # 192
  coordinates: [  0.285714285714286,  0.857142857142857,  0.428571428571429 ]
  mass: 137.327000
- symbol: Ba # 193
  coordinates: [  0.428571428571429,  0.857142857142857,  0.428571428571429 ]
  mass: 137.327000
- symbol: Ba # 194
  coordinates: [  0.571428571428571,  0.857142857142857,  0.428571428571429 ]
  mass: 137.327000
- symbol: Ba # 195
  coordinates: [  0.714285714285714,  0.857142857142857,  0.428571428571429 ]
  mass: 137.327000
- symbol: Ba # 196
  coordinates: [  0.857142857142857,  0.857142857142857,  0.428571428571429 ]
  mass: 137.327000
- symbol: Ba # 197
  coordinates: [  0.000000000000000,  0.000000000000000,  0.571428571428571 ]
  mass: 137.327000
- symbol: Ba # 198
  coordinates: [  0.142857142857143,  0.000000000000000,  0.571428571428571 ]
  mass: 137.327000
- symbol: Ba # 199
  coordinates: [  0.285714285714286,  0.000000000000000,  0.571428571428571 ]
  mass: 137.327000
- symbol: Ba # 200
  coordinates: [  0.428571428571429,  0.000000000000000,  0.571428571428571 ]
  mass: 137.327000
- symbol: Ba # 201
  coordinates: [  0.571428571428571,  0.000000000000000,  0.571428571428571 ]
  mass: 137.327000
- symbol: Ba # 202
  coordinates: [  0.714285714285714,  0.000000000000000,  0.571428571428571 ]
  mass: 137.327000
- symbol: Ba # 203
  coordinates: [  0.857142857142857,  0.000000000000000,  0.571428571428571 ]
  mass: 137.327000
- symbol: Ba # 204
  coordinates: [  0.000000000000000,  0.142857142857143,  0.571428571428571 ]
  mass: 137.327000
- symbol: Ba # 205
  coordinates: [  0.142857142857143,  0.142857142857143,  0.571428571428571 ]
  mass: 137.327000
- symbol: Ba # 206
  coordinates: [  0.285714285714286,  0.142857142857143,  0.571428571428571 ]
  mass: 137.327000
- symbol: Ba # 207
  coordinates: [  0.428571428571429,  0.142857142857143,  0.571428571428571 ]
  mass: 137.327000
- symbol: Ba # 208
  coordinates: [  0.571428571428571,  0.142857142857143,  0.571428571428571 ]
  mass: 137.327000
- symbol: Ba # 209
  coordinates: [  0.714285714285714,  0.142857142857143,  0.571428571428571 ]
  mass: 137.327000
- symbol: Ba # 210
  coordinates: [  0.857142857142857,  0.142857142857143,  0.571428571428571 ]
  mass: 137.327000
- symbol: Ba # 211
  coordinates: [  0.000000000000000,  0.285714285714286,  0.571428571428571 ]
  mass: 137.327000
- symbol: Ba # 212
  coordinates: [  0.142857142857143,  0.285714285714286,  0.571428571428571 ]
  mass: 137.327000
- symbol: Ba # 213
  coordinates: [  0.285714285714286,  0.285714285714286,  0.571428571428571 ]
  mass: 137.327000
- symbol: Ba # 214
  coordinates: [  0.428571428571429,  0.285714285714286,  0.571428571428571 ]
  mass: 137.327000
- symbol: Ba # 215
  coordinates: [  0.571428571428571,  0.285714285714286,  0.571428571428571 ]
  mass: 137.327000
- symbol: Ba # 216
  coordinates: [  0.714285714285714,  0.285714285714286,  0.571428571428571 ]
  mass: 137.327000
- symbol: Ba # 217
  coordinates: [  0.857142857142857,  0.285714285714286,  0.571428571428571 ]
  mass: 137.327000
- symbol: Ba # 218
  coordinates: [  0.000000000000000,  0.428571428571429,  0.571428571428571 ]
  mass: 137.327000
- symbol: Ba # 219
  coordinates: [  0.142857142857143,  0.428571428571429,  0.571428571428571 ]
  mass: 137.327000
- symbol: Ba # 220
  coordinates: [  0.285714285714286,  0.428571428571429,  0.571428571428571 ]
  mass: 137.327000
- symbol: Ba # 221
  coordinates: [  0.428571428571429,  0.428571428571429,  0.571428571428571 ]
  mass: 137.327000
- symbol: Ba # 222
  coordinates: [  0.571428571428571,  0.428571428571429,  0.571428571428571 ]
  mass: 137.327000
- symbol: Ba # 223
  coordinates: [  0.714285714285714,  0.428571428571429,  0.571428571428571 ]
  mass: 137.327000
- symbol: Ba # 224
  coordinates: [  0.857142857142857,  0.428571428571429,  0.571428571428571 ]
  mass: 137.327000
- symbol: Ba # 225
  coordinates: [  0.000000000000000,  0.571428571428571,  0.571428571428571 ]
  mass: 137.327000
- symbol: Ba # 226
  coordinates: [  0.142857142857143,  0.571428571428571,  0.571428571428571 ]
  mass: 137.327000
- symbol: Ba # 227
  coordinates: [  0.285714285714286,  0.571428571428571,  0.571428571428571 ]
  mass: 137.327000
- symbol: Ba # 228
  coordinates: [  0.428571428571429,  0.571428571428571,  0.571428571428571 ]
  mass: 137.327000
- symbol: Ba # 229
  coordinates: [  0.571428571428571,  0.571428571428571,  0.571428571428571 ]
  mass: 137.327000
- symbol: Ba # 230
  coordinates: [  0.714285714285714,  0.571428571428571,  0.571428571428571 ]
  mass: 137.327000
- symbol: Ba # 231
  coordinates: [  0.857142857142857,  0.571428571428571,  0.571428571428571 ]
  mass: 137.327000
- symbol: Ba # 232
  coordinates: [  0.000000000000000,  0.714285714285714,  0.571428571428571 ]
  mass: 137.327000
- symbol: Ba # 233
  coordinates: [  0.142857142857143,  0.714285714285714,  0.571428571428571 ]
  mass: 137.327000
- symbol: Ba # 234
  coordinates: [  0.285714285714286,  0.714285714285714,  0.571428571428571 ]
  mass: 137.327000
- symbol: Ba # 235
  coordinates: [  0.428571428571429,  0.714285714285714,  0.571428571428571 ]
  mass: 137.327000
- symbol: Ba # 236
  coordinates: [  0.571428571428571,  0.714285714285714,  0.571428571428571 ]
  mass: 137.327000
- symbol: Ba # 237
  coordinates: [  0.714285714285714,  0.714285714285714,  0.571428571428571 ]
  mass: 137.327000
- symbol: Ba # 238
  coordinates: [  0.857142857142857,  0.714285714285714,  0.571428571428571 ]
  mass: 137.327000
- symbol: Ba # 239
  coordinates: [  0.000000000000000,  0.857142857142857,  0.571428571428571 ]
  mass: 137.327000
- symbol: Ba # 240
  coordinates: [  0.142857142857143,  0.857142857142857,  0.571428571428571 ]
  mass: 137.327000
- symbol: Ba # 241
  coordinates: [  0.285714285714286,  0.857142857142857,  0.571428571428571 ]
  mass: 137.327000
- symbol: Ba # 242
  coordinates: [  0.428571428571429,  0.857142857142857,  0.571428571428571 ]
  mass: 137.327000
- symbol: Ba # 243
  coordinates: [  0.571428571428571,  0.857142857142857,  0.571428571428571 ]
  mass: 137.327000
- symbol: Ba # 244
  coordinates: [  0.714285714285714,  0.857142857142857,  0.571428571428571 ]
  mass: 137.327000
- symbol: Ba # 245
  coordinates: [  0.857142857142857,  0.857142857142857,  0.571428571428571 ]
  mass: 137.327000
- symbol: Ba # 246
  coordinates: [  0.000000000000000,  0.000000000000000,  0.714285714285714 ]
  mass: 137.327000
- symbol: Ba # 247
  coordinates: [  0.142857142857143,  0.000000000000000,  0.714285714285714 ]
  mass: 137.327000
- symbol: Ba # 248
  coordinates: [  0.285714285714286,  0.000000000000000,  0.714285714285714 ]
  mass: 137.327000
- symbol: Ba # 249
  coordinates: [  0.428571428571429,  0.000000000000000,  0.714285714285714 ]
  mass: 137.327000
- symbol: Ba # 250
  coordinates: [  0.571428571428571,  0.000000000000000,  0.714285714285714 ]
  mass: 137.327000
- symbol: Ba # 251
  coordinates: [  0.714285714285714,  0.000000000000000,  0.714285714285714 ]
  mass: 137.327000
- symbol: Ba # 252
  coordinates: [  0.857142857142857,  0.000000000000000,  0.714285714285714 ]
  mass: 137.327000
- symbol: Ba # 253