1715
3

   1
    0.01000000000000     0.00000000000000     0.00000000000000
    -0.08235620028492    -0.00000000000017    -0.00000000000017
     0.01122371916386    -0.00000000000017    -0.00000000000016
     0.00059872894943    -0.00000000000018    -0.00000000000016
     0.00012827371645    -0.00000000000013    -0.00000000000013
     0.00012799949112    -0.00000000000018    -0.00000000000016
     0.00059490837440    -0.00000000000017    -0.00000000000015
     0.01111173819158    -0.00000000000017    -0.00000000000015
    -0.00363572565999    -0.00002136558048    -0.00000000000016
     0.00132619586170     0.00193204407191    -0.00000000000018
     0.00026681652488     0.00017378965494    -0.00000000000018
     0.00008979053580     0.00002438323698    -0.00000000000012
     0.00008961642506    -0.00002422742667    -0.00000000000015
     0.00026590933393    -0.00017281779951    -0.00000000000016
     0.00132218889756    -0.00192158930355    -0.00000000000016
    -0.00015565526658    -0.00000081408410    -0.00000000000016
    -0.00001390806959     0.00017331775975    -0.00000000000017
     0.00006058542593     0.00008459536915    -0.00000000000015
     0.00003772892617     0.00001703936415    -0.00000000000013
     0.00003770715084    -0.00001695358480    -0.00000000000014
     0.00006059520167    -0.00008435747567    -0.00000000000017
    -0.00001330105824    -0.00017328989812    -0.00000000000015
    -0.00003151744305    -0.00000008601714    -0.00000000000012
    -0.00000936591922     0.00002427840733    -0.00000000000012
     0.00001101740737     0.00001700495293    -0.00000000000013
     0.00001449165367     0.00000471391399    -0.00000000000009
     0.00001449658473    -0.00000469232851    -0.00000000000011
     0.00001106262359    -0.00001698749402    -0.00000000000011
    -0.00000925549696    -0.00002433335384    -0.00000000000013
    -0.00003151744311     0.00000008601716    -0.00000000000015
    -0.00000936591922    -0.00002427840729    -0.00000000000014
     0.00001101740738    -0.00001700495288    -0.00000000000013
     0.00001449165362    -0.00000471391397    -0.00000000000011
     0.00001449658473     0.00000469232848    -0.00000000000023
     0.00001106262362     0.00001698749407    -0.00000000000012
    -0.00000925549696     0.00002433335388    -0.00000000000013
    -0.00015565526658     0.00000081408417    -0.00000000000014
    -0.00001390806958    -0.00017331775966    -0.00000000000015
     0.00006058542590    -0.00008459536908    -0.00000000000016
     0.00003772892619    -0.00001703936410    -0.00000000000011
     0.00003770715083     0.00001695358491    -0.00000000000011
     0.00006059520172     0.00008435747576    -0.00000000000013
    -0.00001330105825     0.00017328989820    -0.00000000000012
    -0.00363572566000     0.00002136558043    -0.00000000000015
     0.00132619586168    -0.00193204407195    -0.00000000000016
     0.00026681652485    -0.00017378965498    -0.00000000000015
     0.00008979053581    -0.00002438323699    -0.00000000000013
     0.00008961642505     0.00002422742666    -0.00000000000013
     0.00026590933395     0.00017281779948    -0.00000000000013
     0.00132218889756     0.00192158930350    -0.00000000000016
    -0.00363572565998    -0.00000000000016    -0.00002136558046
     0.00132619586170    -0.00000000000019     0.00193204407190
     0.00026681652488    -0.00000000000020     0.00017378965494
     0.00008979053579    -0.00000000000015     0.00002438323696
     0.00008961642507    -0.00000000000016    -0.00002422742669
     0.00026590933394    -0.00000000000018    -0.00017281779950
     0.00132218889756    -0.00000000000017    -0.00192158930354
    -0.00068560564996    -0.00000490149951    -0.00000490149953
     0.00014062201752     0.00040333201890     0.00040333201891
     0.00013024957358     0.00009279724529     0.00009279724530
     0.00006450568816     0.00001682436501     0.00001682436502
     0.00006444818951    -0.00001673063926    -0.00001673063926
     0.00013014182451    -0.00009245986108    -0.00009245986107
     0.00014201800717    -0.00040250564025    -0.00040250564026
    -0.00009697999076    -0.00000048191578    -0.00000018847422
    -0.00001126821762     0.00009255325113     0.00005198033775
     0.00003532354061     0.00005211638972     0.00002795222278
     0.00002815260698     0.00001217962166     0.00000640444851
     0.00002814897467    -0.00001211885443    -0.00000637069375
     0.00003539232650    -0.00005202635464    -0.00002789460418
    -0.00001087928966    -0.00009270457519    -0.00005200459961
    -0.00002359183569    -0.00000006568176    -0.00000002862544
    -0.00000801777924     0.00001675178788     0.00000914195369
     0.00000794067900     0.00001215432904     0.00000701485335
     0.00001172121945     0.00000351485521     0.00000217462797
     0.00001173823074    -0.00000349976369    -0.00000216626731
     0.00000798809172    -0.00001214388398    -0.00000701051919
    -0.00000792314526    -0.00001680363244    -0.00000916586191
    -0.00002359183571     0.00000006568179    -0.00000002862543
    -0.00000801777924    -0.00001675178779     0.00000914195368
     0.00000794067900    -0.00001215432898     0.00000701485334
     0.00001172121943    -0.00000351485516     0.00000217462796
     0.00001173823078     0.00000349976376    -0.00000216626725
     0.00000798809174     0.00001214388406    -0.00000701051919
    -0.00000792314528     0.00001680363249    -0.00000916586187
    -0.00009697999075     0.00000048191588    -0.00000018847418
    -0.00001126821764    -0.00009255325102     0.00005198033775
     0.00003532354060    -0.00005211638966     0.00002795222275
     0.00002815260699    -0.00001217962158     0.00000640444850
     0.00002814897468     0.00001211885454    -0.00000637069374
     0.00003539232651     0.00005202635472    -0.00002789460413
    -0.00001087928968     0.00009270457527    -0.00005200459961
    -0.00068560564994     0.00000490149947    -0.00000490149951
     0.00014062201755    -0.00040333201894     0.00040333201892
     0.00013024957356    -0.00009279724532     0.00009279724530
     0.00006450568814    -0.00001682436505     0.00001682436500
     0.00006444818948     0.00001673063921    -0.00001673063924
     0.00013014182450     0.00009245986103    -0.00009245986107
     0.00014201800717     0.00040250564023    -0.00040250564024
    -0.00015565526658    -0.00000000000019    -0.00000081408405
    -0.00001390806956    -0.00000000000018     0.00017331775977
     0.00006058542595    -0.00000000000017     0.00008459536919
     0.00003772892618    -0.00000000000017     0.00001703936417
     0.00003770715084    -0.00000000000017    -0.00001695358479
     0.00006059520169    -0.00000000000019    -0.00008435747565
    -0.00001330105823    -0.00000000000017    -0.00017328989809
    -0.00009697999074    -0.00000018847421    -0.00000048191576
    -0.00001126821761     0.00005198033776     0.00009255325117
     0.00003532354059     0.00002795222277     0.00005211638974
     0.00002815260698     0.00000640444851     0.00001217962168
     0.00002814897467    -0.00000637069375    -0.00001211885442
     0.00003539232651    -0.00002789460418    -0.00005202635461
    -0.00001087928968    -0.00005200459961    -0.00009270457517
    -0.00003364880613    -0.00000013413018    -0.00000013413014
    -0.00000973001530     0.00002788101117     0.00002788101121
     0.00001197055023     0.00001900025945     0.00001900025948
     0.00001431671025     0.00000548402152     0.00000548402155
     0.00001432715124    -0.00000546558002    -0.00000546558000
     0.00001202429900    -0.00001898333167    -0.00001898333164
    -0.00000958874721    -0.00002796588781    -0.00002796588777
    -0.00001139937976    -0.00000002602050    -0.00000002591569
    -0.00000496102146     0.00000637538354     0.00000699822834
     0.00000393863214     0.00000547422300     0.00000607761606
     0.00000668702703     0.00000181519894     0.00000218084356
     0.00000669484457    -0.00000181163333    -0.00000217287519
     0.00000397194224    -0.00000547542273    -0.00000607994953
    -0.00000491311169    -0.00000639969611    -0.00000702756978
    -0.00001139937976     0.00000002602054    -0.00000002591569
    -0.00000496102148    -0.00000637538349     0.00000699822833
     0.00000393863218    -0.00000547422295     0.00000607761608
     0.00000668702703    -0.00000181519887     0.00000218084356
     0.00000669484456     0.00000181163337    -0.00000217287517
     0.00000397194224     0.00000547542280    -0.00000607994953
    -0.00000491311171     0.00000639969615    -0.00000702756977
    -0.00003364880614     0.00000013413027    -0.00000013413020
    -0.00000973001533    -0.00002788101111     0.00002788101121
     0.00001197055031    -0.00001900025945     0.00001900025956
     0.00001431671025    -0.00000548402149     0.00000548402157
     0.00001432715125     0.00000546558009    -0.00000546558000
     0.00001202429897     0.00001898333173    -0.00001898333165
    -0.00000958874722     0.00002796588785    -0.00002796588778
    -0.00009697999073     0.00000018847417    -0.00000048191578
    -0.00001126821763    -0.00005198033780     0.00009255325112
     0.00003532354059    -0.00002795222278     0.00005211638974
     0.00002815260698    -0.00000640444854     0.00001217962166
     0.00002814897465     0.00000637069368    -0.00001211885442
     0.00003539232650     0.00002789460413    -0.00005202635462
    -0.00001087928966     0.00005200459957    -0.00009270457518
    -0.00003151744306    -0.00000000000016    -0.00000008601716
    -0.00000936591923    -0.00000000000016     0.00002427840730
     0.00001101740737    -0.00000000000016     0.00001700495289
     0.00001449165370    -0.00000000000013     0.00000471391398
     0.00001449658474    -0.00000000000015    -0.00000469232852
     0.00001106262359    -0.00000000000013    -0.00001698749404
    -0.00000925549695    -0.00000000000013    -0.00002433335388
    -0.00002359183570    -0.00000002862544    -0.00000006568177
    -0.00000801777924     0.00000914195368     0.00001675178784
     0.00000794067900     0.00000701485334     0.00001215432901
     0.00001172121944     0.00000217462795     0.00000351485516
     0.00001173823074    -0.00000216626730    -0.00000349976371
     0.00000798809174    -0.00000701051919    -0.00001214388400
    -0.00000792314527    -0.00000916586191    -0.00001680363247
    -0.00001139937975    -0.00000002591571    -0.00000002602054
    -0.00000496102147     0.00000699822832     0.00000637538352
     0.00000393863213     0.00000607761602     0.00000547422297
     0.00000668702701     0.00000218084352     0.00000181519891
     0.00000669484457    -0.00000217287520    -0.00000181163337
     0.00000397194223    -0.00000607994957    -0.00000547542275
    -0.00000491311169    -0.00000702756980    -0.00000639969616
    -0.00000553216124    -0.00000000954046    -0.00000000954048
    -0.00000256145223     0.00000216500768     0.00000216500766
     0.00000148833158     0.00000217538286     0.00000217538287
     0.00000400409033     0.00000075566347     0.00000075566343
     0.00000400802846    -0.00000075475580    -0.00000075475584
     0.00000150628628    -0.00000217847049    -0.00000217847053
    -0.00000253998701    -0.00000217603213    -0.00000217603217
    -0.00000553216126     0.00000000954050    -0.00000000954053
    -0.00000256145221    -0.00000216500766     0.00000216500767
     0.00000148833161    -0.00000217538283     0.00000217538285
     0.00000400409047    -0.00000075566354     0.00000075566357
     0.00000400802843     0.00000075475584    -0.00000075475579
     0.00000150628628     0.00000217847051    -0.00000217847048
    -0.00000253998703     0.00000217603214    -0.00000217603216
    -0.00001139937973     0.00000002591576    -0.00000002602050
    -0.00000496102147    -0.00000699822822     0.00000637538353
     0.00000393863215    -0.00000607761601     0.00000547422299
     0.00000668702701    -0.00000218084351     0.00000181519887
     0.00000669484455     0.00000217287526    -0.00000181163333
     0.00000397194222     0.00000607994959    -0.00000547542275
    -0.00000491311171     0.00000702756985    -0.00000639969617
    -0.00002359183567     0.00000002862540    -0.00000006568177
    -0.00000801777926    -0.00000914195373     0.00001675178784
     0.00000794067898    -0.00000701485338     0.00001215432900
     0.00001172121943    -0.00000217462803     0.00000351485515
     0.00001173823074     0.00000216626722    -0.00000349976372
     0.00000798809171     0.00000701051913    -0.00001214388404
    -0.00000792314527     0.00000916586184    -0.00001680363249
    -0.00003151744311    -0.00000000000021     0.00000008601709
    -0.00000936591923    -0.00000000000018    -0.00002427840732
     0.00001101740740    -0.00000000000016    -0.00001700495293
     0.00001449165366    -0.00000000000014    -0.00000471391397
     0.00001449658478    -0.00000000000025     0.00000469232848
     0.00001106262363    -0.00000000000016     0.00001698749404
    -0.00000925549695    -0.00000000000015     0.00002433335385
    -0.00002359183571    -0.00000002862543     0.00000006568176
    -0.00000801777924     0.00000914195369    -0.00001675178783
     0.00000794067900     0.00000701485334    -0.00001215432902
     0.00001172121942     0.00000217462797    -0.00000351485519
     0.00001173823077    -0.00000216626724     0.00000349976372
     0.00000798809175    -0.00000701051917     0.00001214388402
    -0.00000792314529    -0.00000916586189     0.00001680363243
    -0.00001139937975    -0.00000002591568     0.00000002602051
    -0.00000496102148     0.00000699822833    -0.00000637538352
     0.00000393863218     0.00000607761608    -0.00000547422298
     0.00000668702700     0.00000218084354    -0.00000181519892
     0.00000669484456    -0.00000217287518     0.00000181163335
     0.00000397194225    -0.00000607994955     0.00000547542275
    -0.00000491311168    -0.00000702756977     0.00000639969613
    -0.00000553216125    -0.00000000954048     0.00000000954050
    -0.00000256145222     0.00000216500768    -0.00000216500768
     0.00000148833159     0.00000217538286    -0.00000217538286
     0.00000400409047     0.00000075566362    -0.00000075566361
     0.00000400802845    -0.00000075475570     0.00000075475582
     0.00000150628628    -0.00000217847044     0.00000217847050
    -0.00000253998699    -0.00000217603212     0.00000217603212
    -0.00000553216136     0.00000000954054     0.00000000954052
    -0.00000256145216    -0.00000216500764    -0.00000216500764
     0.00000148833163    -0.00000217538284    -0.00000217538286
     0.00000400409055    -0.00000075566354    -0.00000075566358
     0.00000400802828     0.00000075475569     0.00000075475564
     0.00000150628622     0.00000217847050     0.00000217847047
    -0.00000253998701     0.00000217603215     0.00000217603214
    -0.00001139937975     0.00000002591578     0.00000002602051
    -0.00000496102146    -0.00000699822822    -0.00000637538350
     0.00000393863217    -0.00000607761600    -0.00000547422299
     0.00000668702705    -0.00000218084351    -0.00000181519891
     0.00000669484454     0.00000217287519     0.00000181163332
     0.00000397194223     0.00000607994960     0.00000547542274
    -0.00000491311169     0.00000702756987     0.00000639969614
    -0.00002359183568     0.00000002862538     0.00000006568174
    -0.00000801777925    -0.00000914195375    -0.00001675178788
     0.00000794067901    -0.00000701485338    -0.00001215432904
     0.00001172121943    -0.00000217462802    -0.00000351485520
     0.00001173823074     0.00000216626724     0.00000349976369
     0.00000798809174     0.00000701051914     0.00001214388401
    -0.00000792314525     0.00000916586185     0.00001680363244
    -0.00015565526656    -0.00000000000017     0.00000081408419
    -0.00001390806955    -0.00000000000018    -0.00017331775963
     0.00006058542592    -0.00000000000018    -0.00008459536905
     0.00003772892621    -0.00000000000013    -0.00001703936407
     0.00003770715086    -0.00000000000016     0.00001695358493
     0.00006059520172    -0.00000000000016     0.00008435747577
    -0.00001330105824    -0.00000000000015     0.00017328989820
    -0.00009697999074    -0.00000018847419     0.00000048191590
    -0.00001126821763     0.00005198033774    -0.00009255325100
     0.00003532354061     0.00002795222277    -0.00005211638963
     0.00002815260700     0.00000640444851    -0.00001217962155
     0.00002814897468    -0.00000637069374     0.00001211885455
     0.00003539232651    -0.00002789460414     0.00005202635474
    -0.00001087928965    -0.00005200459961     0.00009270457528
    -0.00003364880613    -0.00000013413020     0.00000013413029
    -0.00000973001531     0.00002788101119    -0.00002788101110
     0.00001197055031     0.00001900025954    -0.00001900025943
     0.00001431671024     0.00000548402155    -0.00000548402148
     0.00001432715126    -0.00000546558003     0.00000546558011
     0.00001202429899    -0.00001898333166     0.00001898333176
    -0.00000958874723    -0.00002796588779     0.00002796588788
    -0.00001139937973    -0.00000002602048     0.00000002591578
    -0.00000496102147     0.00000637538356    -0.00000699822823
     0.00000393863217     0.00000547422300    -0.00000607761600
     0.00000668702705     0.00000181519895    -0.00000218084349
     0.00000669484457    -0.00000181163329     0.00000217287528
     0.00000397194223    -0.00000547542273     0.00000607994961
    -0.00000491311169    -0.00000639969612     0.00000702756987
    -0.00001139937975     0.00000002602055     0.00000002591580
    -0.00000496102148    -0.00000637538349    -0.00000699822822
     0.00000393863217    -0.00000547422294    -0.00000607761600
     0.00000668702707    -0.00000181519889    -0.00000218084349
     0.00000669484453     0.00000181163334     0.00000217287519
     0.00000397194224     0.00000547542276     0.00000607994962
    -0.00000491311169     0.00000639969615     0.00000702756986
    -0.00003364880612     0.00000013413029     0.00000013413030
    -0.00000973001530    -0.00002788101112    -0.00002788101110
     0.00001197055032    -0.00001900025947    -0.00001900025946
     0.00001431671025    -0.00000548402151    -0.00000548402149
     0.00001432715122     0.00000546558008     0.00000546558010
     0.00001202429896     0.00001898333171     0.00001898333173
    -0.00000958874720     0.00002796588788     0.00002796588787
    -0.00009697999071     0.00000018847416     0.00000048191589
    -0.00001126821764    -0.00005198033777    -0.00009255325102
     0.00003532354060    -0.00002795222280    -0.00005211638964
     0.00002815260698    -0.00000640444854    -0.00001217962157
     0.00002814897466     0.00000637069370     0.00001211885452
     0.00003539232653     0.00002789460414     0.00005202635472
    -0.00001087928967     0.00005200459956     0.00009270457529
    -0.00363572565999    -0.00000000000016     0.00002136558042
     0.00132619586168    -0.00000000000018    -0.00193204407194
     0.00026681652485    -0.00000000000017    -0.00017378965496
     0.00008979053581    -0.00000000000013    -0.00002438323699
     0.00008961642505    -0.00000000000017     0.00002422742664
     0.00026590933393    -0.00000000000015     0.00017281779947
     0.00132218889757    -0.00000000000016     0.00192158930350
    -0.00068560564995    -0.00000490149952     0.00000490149948
     0.00014062201753     0.00040333201892    -0.00040333201895
     0.00013024957356     0.00009279724531    -0.00009279724532
     0.00006450568814     0.00001682436500    -0.00001682436507
     0.00006444818947    -0.00001673063925     0.00001673063920
     0.00013014182450    -0.00009245986107     0.00009245986103
     0.00014201800717    -0.00040250564024     0.00040250564023
    -0.00009697999074    -0.00000048191580     0.00000018847418
    -0.00001126821762     0.00009255325112    -0.00005198033778
     0.00003532354059     0.00005211638971    -0.00002795222278
     0.00002815260698     0.00001217962164    -0.00000640444855
     0.00002814897466    -0.00001211885445     0.00000637069368
     0.00003539232651    -0.00005202635463     0.00002789460412
    -0.00001087928966    -0.00009270457519     0.00005200459957
    -0.00002359183568    -0.00000006568174     0.00000002862540
    -0.00000801777926     0.00001675178786    -0.00000914195374
     0.00000794067898     0.00001215432903    -0.00000701485339
     0.00001172121941     0.00000351485517    -0.00000217462805
     0.00001173823076    -0.00000349976371     0.00000216626723
     0.00000798809173    -0.00001214388401     0.00000701051913
    -0.00000792314526    -0.00001680363246     0.00000916586184
    -0.00002359183572     0.00000006568177     0.00000002862537
    -0.00000801777924    -0.00001675178784    -0.00000914195375
     0.00000794067898    -0.00001215432900    -0.00000701485340
     0.00001172121942    -0.00000351485515    -0.00000217462804
     0.00001173823075     0.00000349976372     0.00000216626725
     0.00000798809172     0.00001214388403     0.00000701051913
    -0.00000792314523     0.00001680363247     0.00000916586187
    -0.00009697999072     0.00000048191587     0.00000018847416
    -0.00001126821764    -0.00009255325103    -0.00005198033779
     0.00003532354060    -0.00005211638965    -0.00002795222280
     0.00002815260696    -0.00001217962158    -0.00000640444855
     0.00002814897465     0.00001211885451     0.00000637069369
     0.00003539232651     0.00005202635472     0.00002789460413
    -0.00001087928966     0.00009270457528     0.00005200459957
    -0.00068560564993     0.00000490149948     0.00000490149947
     0.00014062201754    -0.00040333201894    -0.00040333201894
     0.00013024957354    -0.00009279724532    -0.00009279724532
     0.00006450568813    -0.00001682436504    -0.00001682436505
     0.00006444818947     0.00001673063926     0.00001673063925
     0.00013014182452     0.00009245986105     0.00009245986104
     0.00014201800719     0.00040250564025     0.00040250564027
     0.00128033342599     0.01367671494063     0.01367671494064
     0.00185820032411     0.00078508462353     0.00078508462358
     0.00048568887203     0.00008642982763     0.00008642982770
     0.00022819524601     0.00000006013835     0.00000006013835
     0.00048435029510    -0.00008595642005    -0.00008595642004
     0.00185478166470    -0.00077942265618    -0.00077942265611
     0.00137456091636    -0.01362362554615    -0.01362362554614
    -0.00047599742008     0.00134208583385     0.00020193145856
     0.00024498219565     0.00053463835109     0.00019152329351
     0.00018068874851     0.00011568786887     0.00003893230476
     0.00011907034938     0.00000008412870     0.00000003363142
     0.00018054390114    -0.00011524874857    -0.00003877352783
     0.00024577262153    -0.00053301557444    -0.00019081375421
    -0.00047196139157    -0.00134520034905    -0.00020284468784
    -0.00008962759674     0.00015895830471     0.00001906029254
     0.00001876077315     0.00014446346255     0.00002542397332
     0.00004807108811     0.00005095143293     0.00001096652228
     0.00004536128889     0.00000004374199     0.00000001073233
     0.00004813247951    -0.00005081815378    -0.00001093960880
     0.00001907874205    -0.00014432420290    -0.00002540958195
    -0.00008925986178    -0.00015982430054    -0.00001917618130
    -0.00003510375660    -0.00000000000010     0.00000504596407
     0.00000136380288    -0.00000000000002     0.00000818962911
     0.00002097626345     0.00000000000000     0.00000456933784
     0.00002477862839    -0.00000000000009    -0.00000000002622
     0.00002102698224    -0.00000000000004    -0.00000456438597
     0.00000150667997     0.00000000000001    -0.00000819986544
    -0.00003498320773     0.00000000000008    -0.00000509392011
    -0.00008962759661    -0.00015895830456     0.00001906029265
     0.00001876077320    -0.00014446346239     0.00002542397336
     0.00004807108809    -0.00005095143275     0.00001096652237
     0.00004536128885    -0.00000004374176     0.00000001073244
     0.00004813247954     0.00005081815395    -0.00001093960874
     0.00001907874214     0.00014432420312    -0.00002540958188
    -0.00008925986171     0.00015982430078    -0.00001917618127
    -0.00047599742007    -0.00134208583385     0.00020193145863
     0.00024498219561    -0.00053463835104     0.00019152329357
     0.00018068874848    -0.00011568786888     0.00003893230481
     0.00011907034940    -0.00000008412866     0.00000003363146
     0.00018054390124     0.00011524874869    -0.00003877352775
     0.00024577262147     0.00053301557439    -0.00019081375424
    -0.00047196139154     0.00134520034910    -0.00020284468784
     0.00128033342606    -0.01367671494019     0.01367671494072
     0.00185820032417    -0.00078508462307     0.00078508462365
     0.00048568887202    -0.00008642982717     0.00008642982781
     0.00022819524618    -0.00000006013778     0.00000006013838
     0.00048435029519     0.00008595642071    -0.00008595642000
     0.00185478166469     0.00077942265670    -0.00077942265611
     0.00137456091634     0.01362362554666    -0.01362362554613
    -0.00047599742010     0.00020193145852     0.00134208583392
     0.00024498219565     0.00019152329351     0.00053463835114
     0.00018068874848     0.00003893230475     0.00011568786892
     0.00011907034939     0.00000003363143     0.00000008412875
     0.00018054390117    -0.00003877352784    -0.00011524874854
     0.00024577262151    -0.00019081375427    -0.00053301557440
    -0.00047196139156    -0.00020284468789    -0.00134520034902
    -0.00017522937011     0.00018199005418     0.00018199005424
     0.00005737877787     0.00017016870943     0.00017016870951
     0.00008365699616     0.00005586890671     0.00005586890675
     0.00006843551315     0.00000004954142     0.00000004954145
     0.00008371607766    -0.00005571892178    -0.00005571892173
     0.00005796500017    -0.00016997509978    -0.00016997509973
    -0.00017393292338    -0.00018323389492    -0.00018323389491
    -0.00004876671740     0.00004813695912     0.00002714273328
     0.00000581752741     0.00006270342897     0.00003783875672
     0.00002799872423     0.00002713929412     0.00001803806437
     0.00002896682188     0.00000003037069     0.00000002102026
     0.00002807130225    -0.00002708953804    -0.00001800906008
     0.00000602891754    -0.00006272651296    -0.00003786079273
    -0.00004856811524    -0.00004858294966    -0.00002736692701
    -0.00002183257910     0.00000000000000     0.00000874658687
    -0.00000047285190    -0.00000000000002     0.00001412850714
     0.00001347471911     0.00000000000001     0.00000815211931
     0.00001657754572    -0.00000000000010     0.00000000411809
     0.00001352481877     0.00000000000002    -0.00000814660158
    -0.00000039980494     0.00000000000005    -0.00001415289373
    -0.00002176881519     0.00000000000013    -0.00000882315216
    -0.00004876671738    -0.00004813695895     0.00002714273331
     0.00000581752740    -0.00006270342878     0.00003783875672
     0.00002799872427    -0.00002713929391     0.00001803806443
     0.00002896682189    -0.00000003037046     0.00000002102035
     0.00002807130228     0.00002708953831    -0.00001800906007
     0.00000602891756     0.00006272651323    -0.00003786079273
    -0.00004856811512     0.00004858294990    -0.00002736692705
    -0.00017522937013    -0.00018199005415     0.00018199005422
     0.00005737877793    -0.00017016870942     0.00017016870954
     0.00008365699618    -0.00005586890664     0.00005586890673
     0.00006843551323    -0.00000004954132     0.00000004954142
     0.00008371607772     0.00005571892185    -0.00005571892174
     0.00005796500010     0.00016997509976    -0.00016997509976
    -0.00017393292333     0.00018323389504    -0.00018323389493
    -0.00047599742004    -0.00020193145806     0.00134208583395
     0.00024498219574    -0.00019152329297     0.00053463835119
     0.00018068874848    -0.00003893230424     0.00011568786897
     0.00011907034951    -0.00000003363084     0.00000008412879
     0.00018054390123     0.00003877352847    -0.00011524874856
     0.00024577262150     0.00019081375483    -0.00053301557434
    -0.00047196139156     0.00020284468841    -0.00134520034896
    -0.00008962759671     0.00001906029253     0.00015895830475
     0.00001876077313     0.00002542397331     0.00014446346255
     0.00004807108806     0.00001096652228     0.00005095143295
     0.00004536128889     0.00000001073234     0.00000004374198
     0.00004813247953    -0.00001093960881    -0.00005081815373
     0.00001907874205    -0.00002540958200    -0.00014432420286
    -0.00008925986179    -0.00001917618138    -0.00015982430049
    -0.00004876671740     0.00002714273320     0.00004813695915
     0.00000581752738     0.00003783875664     0.00006270342896
     0.00002799872424     0.00001803806432     0.00002713929413
     0.00002896682188     0.00000002102023     0.00000003037067
     0.00002807130225    -0.00001800906012    -0.00002708953806
     0.00000602891755    -0.00003786079280    -0.00006272651293
    -0.00004856811521    -0.00002736692706    -0.00004858294962
    -0.00001947591258     0.00001167433179     0.00001167433185
     0.00000012561918     0.00001900827326     0.00001900827327
     0.00001180056839     0.00001037309994     0.00001037309992
     0.00001437642574     0.00000000179024     0.00000000179021
     0.00001184568318    -0.00001035929434    -0.00001035929433
     0.00000022585954    -0.00001903934831    -0.00001903934828
    -0.00001940974491    -0.00001180161262    -0.00001180161259
    -0.00001034527188     0.00000000000001     0.00000488966484
    -0.00000098698918     0.00000000000001     0.00000830837606
     0.00000705433841     0.00000000000004     0.00000572425409
     0.00000991453078     0.00000000000001     0.00000000196581
     0.00000709836171     0.00000000000005    -0.00000572119273