nqpoint: 151    
natom:   5      
reciprocal_lattice:
- [   0.25173007,   0.00000000,   0.00000000 ] # a*
- [   0.00000000,   0.25173007,   0.00000000 ] # b*
- [   0.00000000,   0.00000000,   0.25173007 ] # c*
phonon:
- q-position: [    0.0000000,    0.0000000,    0.0000000 ]
  band:
  - # 1
    frequency:   -4.4685300807
  - # 2
    frequency:   -4.4685300807
  - # 3
    frequency:   -4.4685300807
  - # 4
    frequency:    0.0030746162
  - # 5
    frequency:    0.0030746162
  - # 6
    frequency:    0.0030746162
  - # 7
    frequency:    5.0799607728
  - # 8
    frequency:    5.0799607728
  - # 9
    frequency:    5.0799607728
  - # 10
    frequency:    9.2530987181
  - # 11
    frequency:    9.2530987181
  - # 12
    frequency:    9.2530987181
  - # 13
    frequency:   13.8510948579
  - # 14
    frequency:   13.8510948579
  - # 15
    frequency:   13.8510948579

- q-position: [    0.0000000,    0.0166667,    0.0000000 ]
  band:
  - # 1
    frequency:   -4.4652389993
  - # 2
    frequency:   -4.4652389993
  - # 3
    frequency:    0.1932192560
  - # 4
    frequency:    0.1932192560
  - # 5
    frequency:    0.3017442788
  - # 6
    frequency:    4.9386732643
  - # 7
    frequency:    5.0815382464
  - # 8
    frequency:    5.0815382464
  - # 9
    frequency:    9.2546146928
  - # 10
    frequency:    9.2546146928
  - # 11
    frequency:    9.2546764863
  - # 12
    frequency:   13.4924897151
  - # 13
    frequency:   13.8498022939
  - # 14
    frequency:   13.8498022939
  - # 15
    frequency:   21.9018198038

- q-position: [    0.0000000,    0.0333333,    0.0000000 ]
  band:
  - # 1
    frequency:   -4.4554496370
  - # 2
    frequency:   -4.4554496370
  - # 3
    frequency:    0.3859078763
  - # 4
    frequency:    0.3859078763
  - # 5
    frequency:    0.5990474318
  - # 6
    frequency:    4.9843105279
  - # 7
    frequency:    5.0862923961
  - # 8
    frequency:    5.0862923961
  - # 9
    frequency:    9.2591611425
  - # 10
    frequency:    9.2591611425
  - # 11
    frequency:    9.2593874819
  - # 12
    frequency:   13.5201086400
  - # 13
    frequency:   13.8459288861
  - # 14
    frequency:   13.8459288861
  - # 15
    frequency:   21.6998376207

- q-position: [    0.0000000,    0.0500000,    0.0000000 ]
  band:
  - # 1
    frequency:   -4.4394097293
  - # 2
    frequency:   -4.4394097293
  - # 3
    frequency:    0.5775862346
  - # 4
    frequency:    0.5775862346
  - # 5
    frequency:    0.8880976594
  - # 6
    frequency:    5.0572848184
  - # 7
    frequency:    5.0942876227
  - # 8
    frequency:    5.0942876227
  - # 9
    frequency:    9.2667334334
  - # 10
    frequency:    9.2667334334
  - # 11
    frequency:    9.2671652675
  - # 12
    frequency:   13.5631364234
  - # 13
    frequency:   13.8394876179
  - # 14
    frequency:   13.8394876179
  - # 15
    frequency:   21.3703501968

- q-position: [    0.0000000,    0.0666667,    0.0000000 ]
  band:
  - # 1
    frequency:   -4.4175192547
  - # 2
    frequency:   -4.4175192547
  - # 3
    frequency:    0.7676653065
  - # 4
    frequency:    0.7676653065
  - # 5
    frequency:    1.1661696488
  - # 6
    frequency:    5.1056285152
  - # 7
    frequency:    5.1056285152
  - # 8
    frequency:    5.1533897775
  - # 9
    frequency:    9.2773231288
  - # 10
    frequency:    9.2773231288
  - # 11
    frequency:    9.2779007251
  - # 12
    frequency:   13.6172184560
  - # 13
    frequency:   13.8305005649
  - # 14
    frequency:   13.8305005649
  - # 15
    frequency:   20.9241827646

- q-position: [    0.0000000,    0.0833333,    0.0000000 ]
  band:
  - # 1
    frequency:   -4.3903115544
  - # 2
    frequency:   -4.3903115544
  - # 3
    frequency:    0.9554797578
  - # 4
    frequency:    0.9554797578
  - # 5
    frequency:    1.4317813731
  - # 6
    frequency:    5.1204552942
  - # 7
    frequency:    5.1204552942
  - # 8
    frequency:    5.2675257906
  - # 9
    frequency:    9.2909168903
  - # 10
    frequency:    9.2909168903
  - # 11
    frequency:    9.2914444081
  - # 12
    frequency:   13.6765413006
  - # 13
    frequency:   13.8189995549
  - # 14
    frequency:   13.8189995549
  - # 15
    frequency:   20.3767043070

- q-position: [    0.0000000,    0.1000000,    0.0000000 ]
  band:
  - # 1
    frequency:   -4.3584280584
  - # 2
    frequency:   -4.3584280584
  - # 3
    frequency:    1.1402691031
  - # 4
    frequency:    1.1402691031
  - # 5
    frequency:    1.6845663478
  - # 6
    frequency:    5.1389365843
  - # 7
    frequency:    5.1389365843
  - # 8
    frequency:    5.3943356529
  - # 9
    frequency:    9.3074948794
  - # 10
    frequency:    9.3074948794
  - # 11
    frequency:    9.3076097074
  - # 12
    frequency:   13.7340601067
  - # 13
    frequency:   13.8050270980
  - # 14
    frequency:   13.8050270980
  - # 15
    frequency:   19.7480658779

- q-position: [    0.0000000,    0.1166667,    0.0000000 ]
  band:
  - # 1
    frequency:   -4.3225880899
  - # 2
    frequency:   -4.3225880899
  - # 3
    frequency:    1.3211730446
  - # 4
    frequency:    1.3211730446
  - # 5
    frequency:    1.9249526879
  - # 6
    frequency:    5.1612587555
  - # 7
    frequency:    5.1612587555
  - # 8
    frequency:    5.5288103491
  - # 9
    frequency:    9.3261767160
  - # 10
    frequency:    9.3270286101
  - # 11
    frequency:    9.3270286101
  - # 12
    frequency:   13.7816943179
  - # 13
    frequency:   13.7886375974
  - # 14
    frequency:   13.7886375974
  - # 15
    frequency:   19.0635280836

- q-position: [    0.0000000,    0.1333333,    0.0000000 ]
  band:
  - # 1
    frequency:   -4.2835558707
  - # 2
    frequency:   -4.2835558707
  - # 3
    frequency:    1.4972402055
  - # 4
    frequency:    1.4972402055
  - # 5
    frequency:    2.1537759183
  - # 6
    frequency:    5.1876110283
  - # 7
    frequency:    5.1876110283
  - # 8
    frequency:    5.6667634620
  - # 9
    frequency:    9.3468966527
  - # 10
    frequency:    9.3494781892
  - # 11
    frequency:    9.3494781892
  - # 12
    frequency:   13.7698988447
  - # 13
    frequency:   13.7698988447
  - # 14
    frequency:   13.8104290500
  - # 15
    frequency:   18.3538382453

- q-position: [    0.0000000,    0.1500000,    0.0000000 ]
  band:
  - # 1
    frequency:   -4.2421073600
  - # 2
    frequency:   -4.2421073600
  - # 3
    frequency:    1.6674512179
  - # 4
    frequency:    1.6674512179
  - # 5
    frequency:    2.3719280743
  - # 6
    frequency:    5.2181657076
  - # 7
    frequency:    5.2181657076
  - # 8
    frequency:    5.8051238228
  - # 9
    frequency:    9.3694966940
  - # 10
    frequency:    9.3747888871
  - # 11
    frequency:    9.3747888871
  - # 12
    frequency:   13.7488938099
  - # 13
    frequency:   13.7488938099
  - # 14
    frequency:   13.8103831709
  - # 15
    frequency:   17.6554328220

- q-position: [    0.0000000,    0.1666667,    0.0000000 ]
  band:
  - # 1
    frequency:   -4.1989997311
  - # 2
    frequency:   -4.1989997311
  - # 3
    frequency:    1.8307558724
  - # 4
    frequency:    1.8307558724
  - # 5
    frequency:    2.5800980485
  - # 6
    frequency:    5.2530533864
  - # 7
    frequency:    5.2530533864
  - # 8
    frequency:    5.9420501471
  - # 9
    frequency:    9.3936850563
  - # 10
    frequency:    9.4028869896
  - # 11
    frequency:    9.4028869896
  - # 12
    frequency:   13.7257227276
  - # 13
    frequency:   13.7257227276
  - # 14
    frequency:   13.7714319233
  - # 15
    frequency:   17.0096405586

- q-position: [    0.0000000,    0.1833333,    0.0000000 ]
  band:
  - # 1
    frequency:   -4.1549459862
  - # 2
    frequency:   -4.1549459862
  - # 3
    frequency:    1.9861221225
  - # 4
    frequency:    1.9861221225
  - # 5
    frequency:    2.7786209241
  - # 6
    frequency:    5.2923338359
  - # 7
    frequency:    5.2923338359
  - # 8
    frequency:    6.0769017436
  - # 9
    frequency:    9.4191561721
  - # 10
    frequency:    9.4336749080
  - # 11
    frequency:    9.4336749080
  - # 12
    frequency:   13.6862727320
  - # 13
    frequency:   13.7005054805
  - # 14
    frequency:   13.7005054805
  - # 15
    frequency:   16.4586931128

- q-position: [    0.0000000,    0.2000000,    0.0000000 ]
  band:
  - # 1
    frequency:   -4.1105964467
  - # 2
    frequency:   -4.1105964467
  - # 3
    frequency:    2.1325926264
  - # 4
    frequency:    2.1325926264
  - # 5
    frequency:    2.9674401478
  - # 6
    frequency:    5.3359645409
  - # 7
    frequency:    5.3359645409
  - # 8
    frequency:    6.2100995148
  - # 9
    frequency:    9.4455958143
  - # 10
    frequency:    9.4670255652
  - # 11
    frequency:    9.4670255652
  - # 12
    frequency:   13.5585155188
  - # 13
    frequency:   13.6733842658
  - # 14
    frequency:   13.6733842658
  - # 15
    frequency:   16.0356496434

- q-position: [    0.0000000,    0.2166667,    0.0000000 ]
  band:
  - # 1
    frequency:   -4.0665278018
  - # 2
    frequency:   -4.0665278018
  - # 3
    frequency:    2.2693426394
  - # 4
    frequency:    2.2693426394
  - # 5
    frequency:    3.1461854002
  - # 6
    frequency:    5.3837702667
  - # 7
    frequency:    5.3837702667
  - # 8
    frequency:    6.3428925386
  - # 9
    frequency:    9.4726860349
  - # 10
    frequency:    9.5027761427
  - # 11
    frequency:    9.5027761427
  - # 12
    frequency:   13.4121746071
  - # 13
    frequency:   13.6445265197
  - # 14
    frequency:   13.6445265197
  - # 15
    frequency:   15.7517040702

- q-position: [    0.0000000,    0.2333333,    0.0000000 ]
  band:
  - # 1
    frequency:   -4.0232393281
  - # 2
    frequency:   -4.0232393281
  - # 3
    frequency:    2.3957319425
  - # 4
    frequency:    2.3957319425
  - # 5
    frequency:    3.3143560766
  - # 6
    frequency:    5.4354182222
  - # 7
    frequency:    5.4354182222
  - # 8
    frequency:    6.4770262769
  - # 9
    frequency:    9.5001098043
  - # 10
    frequency:    9.5407213539
  - # 11
    frequency:    9.5407213539
  - # 12
    frequency:   13.2881804159
  - # 13
    frequency:   13.6141280475
  - # 14
    frequency:   13.6141280475
  - # 15
    frequency:   15.5955292717

- q-position: [    0.0000000,    0.2500000,    0.0000000 ]
  band:
  - # 1
    frequency:   -3.9811550456
  - # 2
    frequency:   -3.9811550456
  - # 3
    frequency:    2.5113435844
  - # 4
    frequency:    2.5113435844
  - # 5
    frequency:    3.4715585277
  - # 6
    frequency:    5.4904037684
  - # 7
    frequency:    5.4904037684
  - # 8
    frequency:    6.6143075106
  - # 9
    frequency:    9.5275552596
  - # 10
    frequency:    9.5806065157
  - # 11
    frequency:    9.5806065157
  - # 12
    frequency:   13.2248534395
  - # 13
    frequency:   13.5824162729
  - # 14
    frequency:   13.5824162729
  - # 15
    frequency:   15.5486194591

- q-position: [    0.0000000,    0.2666667,    0.0000000 ]
  band:
  - # 1
    frequency:   -3.9406301086
  - # 2
    frequency:   -3.9406301086
  - # 3
    frequency:    2.6160038128
  - # 4
    frequency:    2.6160038128
  - # 5
    frequency:    3.6176984505
  - # 6
    frequency:    5.5480507249
  - # 7
    frequency:    5.5480507249
  - # 8
    frequency:    6.7560892195
  - # 9
    frequency:    9.5547194934
  - # 10
    frequency:    9.6221208146
  - # 11
    frequency:    9.6221208146
  - # 12
    frequency:   13.2413405522
  - # 13
    frequency:   13.5496534735
  - # 14
    frequency:   13.5496534735
  - # 15
    frequency:   15.5989798585

- q-position: [    0.0000000,    0.2833333,    0.0000000 ]
  band:
  - # 1
    frequency:   -3.9019596460
  - # 2
    frequency:   -3.9019596460
  - # 3
    frequency:    2.7097805377
  - # 4
    frequency:    2.7097805377
  - # 5
    frequency:    3.7530378876
  - # 6
    frequency:    5.6075280893
  - # 7
    frequency:    5.6075280893
  - # 8
    frequency:    6.9027498892
  - # 9
    frequency:    9.5813118377
  - # 10
    frequency:    9.6648912882
  - # 11
    frequency:    9.6648912882
  - # 12
    frequency:   13.3354310901
  - # 13
    frequency:   13.5161398003
  - # 14
    frequency:   13.5161398003
  - # 15
    frequency:   15.7428288022

- q-position: [    0.0000000,    0.3000000,    0.0000000 ]
  band:
  - # 1
    frequency:   -3.8653884853
  - # 2
    frequency:   -3.8653884853
  - # 3
    frequency:    2.7929613460
  - # 4
    frequency:    2.7929613460
  - # 5
    frequency:    3.8781063649
  - # 6
    frequency:    5.6678819141
  - # 7
    frequency:    5.6678819141
  - # 8
    frequency:    7.0532930089
  - # 9
    frequency:    9.6070566218
  - # 10
    frequency:    9.7084781721
  - # 11
    frequency:    9.7084781721
  - # 12
    frequency:   13.4822158007
  - # 13
    frequency:   13.4822158007
  - # 14
    frequency:   13.4916407674
  - # 15
    frequency:   15.9784761266

- q-position: [    0.0000000,    0.3166667,    0.0000000 ]
  band:
  - # 1
    frequency:   -3.8311205697
  - # 2
    frequency:   -3.8311205697
  - # 3
    frequency:    2.8660154430
  - # 4
    frequency:    2.8660154430
  - # 5
    frequency:    3.9935352983
  - # 6
    frequency:    5.7280781517
  - # 7
    frequency:    5.7280781517
  - # 8
    frequency:    7.2052127670
  - # 9
    frequency:    9.6316954044
  - # 10
    frequency:    9.7523723676
  - # 11
    frequency:    9.7523723676
  - # 12
    frequency:   13.4482640554
  - # 13
    frequency:   13.4482640554
  - # 14
    frequency:   13.6922155914
  - # 15
    frequency:   16.2986894701

- q-position: [    0.0000000,    0.3333333,    0.0000000 ]
  band:
  - # 1
    frequency:   -3.7993273023
  - # 2
    frequency:   -3.7993273023
  - # 3
    frequency:    2.9295459868
  - # 4
    frequency:    2.9295459868
  - # 5
    frequency:    4.0998946530
  - # 6
    frequency:    5.7870504376
  - # 7
    frequency:    5.7870504376
  - # 8
    frequency:    7.3547308326
  - # 9
    frequency:    9.6549886976
  - # 10
    frequency:    9.7959958582
  - # 11
    frequency:    9.7959958582
  - # 12
    frequency:   13.4147094297
  - # 13
    frequency:   13.4147094297
  - # 14
    frequency:   13.9246437201
  - # 15
    frequency:   16.6865783926

- q-position: [    0.0000000,    0.3500000,    0.0000000 ]
  band:
  - # 1
    frequency:   -3.7701544172
  - # 2
    frequency:   -3.7701544172
  - # 3
    frequency:    2.9842396576
  - # 4
    frequency:    2.9842396576
  - # 5
    frequency:    4.1975729332
  - # 6
    frequency:    5.8437465408
  - # 7
    frequency:    5.8437465408
  - # 8
    frequency:    7.4973945023
  - # 9
    frequency:    9.6767172203
  - # 10
    frequency:    9.8387059219
  - # 11
    frequency:    9.8387059219
  - # 12
    frequency:   13.3820173213
  - # 13
    frequency:   13.3820173213
  - # 14
    frequency:   14.1825535698
  - # 15
    frequency:   17.1172128931

- q-position: [    0.0000000,    0.3666667,    0.0000000 ]
  band:
  - # 1
    frequency:   -3.7437272691
  - # 2
    frequency:   -3.7437272691
  - # 3
    frequency:    3.0308191724
  - # 4
    frequency:    3.0308191724
  - # 5
    frequency:    4.2867107637
  - # 6
    frequency:    5.8971684124
  - # 7
    frequency:    5.8971684124
  - # 8
    frequency:    7.6288754711
  - # 9
    frequency:    9.6966827274
  - # 10
    frequency:    9.8798039378
  - # 11
    frequency:    9.8798039378
  - # 12
    frequency:   13.3506891974
  - # 13
    frequency:   13.3506891974
  - # 14
    frequency:   14.4621230132
  - # 15
    frequency:   17.5627015839

- q-position: [    0.0000000,    0.3833333,    0.0000000 ]
  band:
  - # 1
    frequency:   -3.7201546220
  - # 2
    frequency:   -3.7201546220
  - # 3
    frequency:    3.0700024848
  - # 4
    frequency:    3.0700024848
  - # 5
    frequency:    4.3671871262
  - # 6
    frequency:    5.9464027918
  - # 7
    frequency:    5.9464027918
  - # 8
    frequency:    7.7457082355
  - # 9
    frequency:    9.7147084755
  - # 10
    frequency:    9.9185494294
  - # 11
    frequency:    9.9185494294
  - # 12
    frequency:   13.3212546913
  - # 13
    frequency:   13.3212546913
  - # 14
    frequency:   14.7581230582
  - # 15
    frequency:   17.9969666731

- q-position: [    0.0000000,    0.4000000,    0.0000000 ]
  band:
  - # 1
    frequency:   -3.6995311321
  - # 2
    frequency:   -3.6995311321
  - # 3
    frequency:    3.1024703320
  - # 4
    frequency:    3.1024703320
  - # 5
    frequency:    4.4386512713
  - # 6
    frequency:    5.9906414582
  - # 7
    frequency:    5.9906414582
  - # 8
    frequency:    7.8457333251
  - # 9
    frequency:    9.7306393894
  - # 10
    frequency:    9.9541797158
  - # 11
    frequency:    9.9541797158
  - # 12
    frequency:   13.2942596269
  - # 13
    frequency:   13.2942596269
  - # 14
    frequency:   15.0617679788
  - # 15
    frequency:   18.3985089671

- q-position: [    0.0000000,    0.4166667,    0.0000000 ]
  band:
  - # 1
    frequency:   -3.6819387721
  - # 2
    frequency:   -3.6819387721
  - # 3
    frequency:    3.1288421258
  - # 4
    frequency:    3.1288421258
  - # 5
    frequency:    4.5005866608
  - # 6
    frequency:    6.0291919294
  - # 7
    frequency:    6.0291919294
  - # 8
    frequency:    7.9281528560
  - # 9
    frequency:    9.7443419982
  - # 10
    frequency:    9.9859350926
  - # 11
    frequency:    9.9859350926
  - # 12
    frequency:   13.2702496198
  - # 13
    frequency:   13.2702496198
  - # 14
    frequency:   15.3604179345
  - # 15
    frequency:   18.7514060423

- q-position: [    0.0000000,    0.4333333,    0.0000000 ]
  band:
  - # 1
    frequency:   -3.6674474567
  - # 2
    frequency:   -3.6674474567
  - # 3
    frequency:    3.1496591430
  - # 4
    frequency:    3.1496591430
  - # 5
    frequency:    4.5523899597
  - # 6
    frequency:    6.0614804814
  - # 7
    frequency:    6.0614804814
  - # 8
    frequency:    7.9932685074
  - # 9
    frequency:    9.7557042099
  - # 10
    frequency:   10.0130888392
  - # 11
    frequency:   10.0130888392
  - # 12
    frequency:   13.2497494091
  - # 13
    frequency:   13.2497494091
  - # 14
    frequency:   15.6384765182
  - # 15
    frequency:   19.0452504545

- q-position: [    0.0000000,    0.4500000,    0.0000000 ]
  band:
  - # 1
    frequency:   -3.6561151166
  - # 2
    frequency:   -3.6561151166
  - # 3
    frequency:    3.1653735046
  - # 4
    frequency:    3.1653735046
  - # 5
    frequency:    4.5934502013
  - # 6
    frequency:    6.0870498226
  - # 7
    frequency:    6.0870498226
  - # 8
    frequency:    8.0420594675
  - # 9
    frequency:    9.7646349925
  - # 10
    frequency:   10.0349805516
  - # 11
    frequency:   10.0349805516
  - # 12
    frequency:   13.2332388068
  - # 13
    frequency:   13.2332388068
  - # 14
    frequency:   15.8789297473
  - # 15
    frequency:   19.2744820853

- q-position: [    0.0000000,    0.4666667,    0.0000000 ]
  band:
  - # 1
    frequency:   -3.6479874423
  - # 2
    frequency:   -3.6479874423
  - # 3
    frequency:    3.1763413927
  - # 4
    frequency:    3.1763413927
  - # 5
    frequency:    4.6232184146
  - # 6
    frequency:    6.1055537550
  - # 7
    frequency:    6.1055537550
  - # 8
    frequency:    8.0757496249
  - # 9
    frequency:    9.7710640192
  - # 10
    frequency:   10.0510504291
  - # 11
    frequency:   10.0510504291
  - # 12
    frequency:   13.2211270138
  - # 13
    frequency:   13.2211270138
  - # 14
    frequency:   16.0652289435
  - # 15
    frequency:   19.4372876482

- q-position: [    0.0000000,    0.4833333,    0.0000000 ]
  band:
  - # 1
    frequency:   -3.6430974852
  - # 2
    frequency:   -3.6430974852
  - # 3
    frequency:    3.1828191495
  - # 4
    frequency:    3.1828191495
  - # 5
    frequency:    4.6412629918
  - # 6
    frequency:    6.1167508698
  - # 7
    frequency:    6.1167508698
  - # 8
    frequency:    8.0954536024
  - # 9
    frequency:    9.7749413347
  - # 10
    frequency:   10.0608713886
  - # 11
    frequency:   10.0608713886
  - # 12
    frequency:   13.2137278546
  - # 13
    frequency:   13.2137278546
  - # 14
    frequency:   16.1833569183
  - # 15
    frequency:   19.5341496215

- q-position: [    0.0000000,    0.5000000,    0.0000000 ]
  band:
  - # 1
    frequency:   -3.6414652640
  - # 2
    frequency:   -3.6414652640
  - # 3
    frequency:    3.1849612118
  - # 4
    frequency:    3.1849612118
  - # 5
    frequency:    4.6473092424
  - # 6
    frequency:    6.1204988984
  - # 7
    frequency:    6.1204988984
  - # 8
    frequency:    8.1019321433
  - # 9
    frequency:    9.7762370837
  - # 10
    frequency:   10.0641754908
  - # 11
    frequency:   10.0641754908
  - # 12
    frequency:   13.2112389636
  - # 13
    frequency:   13.2112389636
  - # 14
    frequency:   16.2238505103
  - # 15
    frequency:   19.5662484095

- q-position: [    0.0166667,    0.5000000,    0.0000000 ]
  band:
  - # 1
    frequency:   -3.6388832447
  - # 2
    frequency:   -3.5433989030
  - # 3
    frequency:    3.1850043184
  - # 4
    frequency:    3.1854814731
  - # 5
    frequency:    4.6500840500
  - # 6
    frequency:    6.1296393823
  - # 7
    frequency:    6.1320447296
  - # 8
    frequency:    8.0953521082
  - # 9
    frequency:    9.7222075623
  - # 10
    frequency:   10.0646410732
  - # 11
    frequency:   10.1220629847
  - # 12
    frequency:   13.2079300611
  - # 13
    frequency:   13.2086618957
  - # 14
    frequency:   16.2069436843
  - # 15
    frequency:   19.5614155604

- q-position: [    0.0333333,    0.5000000,    0.0000000 ]
  band:
  - # 1
    frequency:   -3.6311992430
  - # 2
    frequency:   -3.2399663967
  - # 3
    frequency:    3.1851330743
  - # 4
    frequency:    3.1869943591
  - # 5
    frequency:    4.6606928492
  - # 6
    frequency:    6.1569618314
  - # 7
    frequency:    6.1660871915
  - # 8
    frequency:    8.0755138016
  - # 9
    frequency:    9.6164919129
  - # 10
    frequency:   10.0660326357
  - # 11
    frequency:   10.2392562835
  - # 12
    frequency:   13.1977798597
  - # 13
    frequency:   13.2009287067
  - # 14
    frequency:   16.1567850141
  - # 15
    frequency:   19.5479762015

- q-position: [    0.0500000,    0.5000000,    0.0000000 ]
  band:
  - # 1
    frequency:   -3.6185961648
  - # 2
    frequency:   -2.6938454989
  - # 3
    frequency:    3.1853457993
  - # 4
    frequency:    3.1893657780
  - # 5
    frequency:    4.6866484866
  - # 6
    frequency:    6.2021715031
  - # 7
    frequency:    6.2209755367
  - # 8
    frequency:    8.0421407717
  - # 9
    frequency:    9.5019827489
  - # 10
    frequency:   10.0683346844
  - # 11
    frequency:   10.3725743651
  - # 12
    frequency:   13.1801381736
  - # 13
    frequency:   13.1880335096
  - # 14
    frequency:   16.0750742263
  - # 15
    frequency:   19.5289948172

- q-position: [    0.0666667,    0.5000000,    0.0000000 ]
  band:
  - # 1
    frequency:   -3.6013682720
  - # 2
    frequency:   -1.7722800605
  - # 3
    frequency:    3.1856397323
  - # 4
    frequency:    3.1924134551
  - # 5
    frequency:    4.7430859521
  - # 6
    frequency:    6.2647846933
  - # 7
    frequency:    6.2943390051
  - # 8
    frequency:    7.9948330629
  - # 9
    frequency:    9.3897925127
  - # 10
    frequency:   10.0715215955
  - # 11
    frequency:   10.5104237576
  - # 12
    frequency:   13.1540008025
  - # 13
    frequency:   13.1699667227
  - # 14
    frequency:   15.9646801072
  - # 15
    frequency:   19.5092043078

- q-position: [    0.0833333,    0.5000000,    0.0000000 ]
  band:
  - # 1
    frequency:   -3.5799063064
  - # 2
    frequency:    1.1674595249
  - # 3
    frequency:    3.1860110890
  - # 4
    frequency:    3.1960242335
  - # 5
    frequency:    4.8573246052
  - # 6
    frequency:    6.3441399440
  - # 7
    frequency:    6.3834935713
  - # 8
    frequency:    7.9331561886
  - # 9
    frequency:    9.2836953587
  - # 10
    frequency:   10.0755579113
  - # 11
    frequency:   10.6483543582
  - # 12
    frequency:   13.1181648037
  - # 13
    frequency:   13.1467154155
  - # 14
    frequency:   15.8296533553
  - # 15
    frequency:   19.4944581039

- q-position: [    0.1000000,    0.5000000,    0.0000000 ]
  band:
  - # 1
    frequency:   -3.5546785471
  - # 2
    frequency:    2.3559231955
  - # 3
    frequency:    3.1864551381
  - # 4
    frequency:    3.2006377859
  - # 5
    frequency:    5.0702961242
  - # 6
    frequency:    6.4394134753
  - # 7
    frequency:    6.4858637226
  - # 8
    frequency:    7.8567522324
  - # 9
    frequency:    9.1854631664
  - # 10
    frequency:   10.0803987504
  - # 11
    frequency:   10.7837282134
  - # 12
    frequency:   13.0714984976
  - # 13
    frequency:   13.1182637979
  - # 14
    frequency:   15.6751663105
  - # 15
    frequency:   19.4910089531

- q-position: [    0.1166667,    0.5000000,    0.0000000 ]
  band:
  - # 1
    frequency:   -3.5262094221
  - # 2
    frequency:    2.9440569278
  - # 3
    frequency:    3.1869662931
  - # 4
    frequency:    3.2111425366
  - # 5
    frequency:    5.4121949739
  - # 6
    frequency:    6.5496384351
  - # 7
    frequency:    6.5995639609
  - # 8
    frequency:    7.7654484341
  - # 9
    frequency:    9.0960243575
  - # 10
    frequency:   10.0859903246
  - # 11
    frequency:   10.9145964273
  - # 12
    frequency:   13.0133320206
  - # 13
    frequency:   13.0845938571
  - # 14
    frequency:   15.5073190012
  - # 15
    frequency:   19.5046922352

- q-position: [    0.1333333,    0.5000000,    0.0000000 ]
  band:
  - # 1
    frequency:   -3.4950574222
  - # 2
    frequency:    3.1662089494
  - # 3
    frequency:    3.1875382163
  - # 4
    frequency:    3.2982797631
  - # 5
    frequency:    5.8551789747
  - # 6
    frequency:    6.6737273046
  - # 7
    frequency:    6.7248448232
  - # 8
    frequency:    7.6593369957
  - # 9
    frequency:    9.0158023882
  - # 10
    frequency:   10.0922705591
  - # 11
    frequency:   11.0394564485
  - # 12
    frequency:   12.9439150095
  - # 13
    frequency:   13.0456861531
  - # 14
    frequency:   15.3327730147
  - # 15
    frequency:   19.5401359740

- q-position: [    0.1500000,    0.5000000,    0.0000000 ]
  band:
  - # 1
    frequency:   -3.4617939684
  - # 2
    frequency:    3.1831101385
  - # 3
    frequency:    3.1881639305
  - # 4
    frequency:    3.4283146592
  - # 5
    frequency:    6.3238582689
  - # 6
    frequency:    6.8104965311
  - # 7
    frequency:    6.8700085881
  - # 8
    frequency:    7.5388246998
  - # 9
    frequency:    8.9448726824
  - # 10
    frequency:   10.0991698056
  - # 11
    frequency:   11.1572612321
  - # 12
    frequency:   12.8648121869
  - # 13
    frequency:   13.0015207893
  - # 14
    frequency:   15.1582297279
  - # 15
    frequency:   19.6001452822

- q-position: [    0.1666667,    0.5000000,    0.0000000 ]
  band:
  - # 1
    frequency:   -3.4269846148
  - # 2
    frequency:    3.1824337814
  - # 3
    frequency:    3.1888359336
  - # 4
    frequency:    3.4903174226
  - # 5
    frequency:    6.7213882939
  - # 6
    frequency:    6.9586922437
  - # 7
    frequency:    7.0794953643
  - # 8
    frequency:    7.4047738058
  - # 9
    frequency:    8.8830738083
  - # 10
    frequency:   10.1066116398
  - # 11
    frequency:   11.2675157766
  - # 12
    frequency:   12.7790612916
  - # 13
    frequency:   12.9520785850
  - # 14
    frequency:   14.9898393751
  - # 15
    frequency:   19.6853907333

- q-position: [    0.1833333,    0.5000000,    0.0000000 ]
  band:
  - # 1
    frequency:   -3.3911735485
  - # 2
    frequency:    3.1772881154
  - # 3
    frequency:    3.1895463140
  - # 4
    frequency:    3.5112929819
  - # 5
    frequency:    6.9566747989
  - # 6
    frequency:    7.1170157876
  - # 7
    frequency:    7.2562648890
  - # 8
    frequency:    7.4204836067
  - # 9
    frequency:    8.8300870814
  - # 10
    frequency:   10.1145137349
  - # 11
    frequency:   11.3703839146
  - # 12
    frequency:   12.6909595243
  - # 13
    frequency:   12.8973424915
  - # 14
    frequency:   14.8326707999
  - # 15
    frequency:   19.7944597176

- q-position: [    0.2000000,    0.5000000,    0.0000000 ]
  band:
  - # 1
    frequency:   -3.3548718825
  - # 2
    frequency:    3.1693711394
  - # 3
    frequency:    3.1902868625
  - # 4
    frequency:    3.5101032245
  - # 5
    frequency:    7.0987849080
  - # 6
    frequency:    7.1071720294
  - # 7
    frequency:    7.2841478301
  - # 8
    frequency:    7.8018166901
  - # 9
    frequency:    8.7854936350
  - # 10
    frequency:   10.1227887976
  - # 11
    frequency:   11.4667344459
  - # 12
    frequency:   12.6054933864
  - # 13
    frequency:   12.8372993142
  - # 14
    frequency:   14.6903529668
  - # 15
    frequency:   19.9242302189

- q-position: [    0.2166667,    0.5000000,    0.0000000 ]
  band:
  - # 1
    frequency:   -3.3185497853
  - # 2
    frequency:    3.1596535210
  - # 3
    frequency:    3.1910491780
  - # 4
    frequency:    3.4971696408
  - # 5
    frequency:    6.9313363716
  - # 6
    frequency:    7.2349635938
  - # 7
    frequency:    7.4587699151
  - # 8
    frequency:    8.1626506665
  - # 9
    frequency:    8.7489244130
  - # 10
    frequency:   10.1313455564
  - # 11
    frequency:   11.5580537274
  - # 12
    frequency:   12.5276128818
  - # 13
    frequency:   12.7719418371
  - # 14
    frequency:   14.5649291982
  - # 15
    frequency:   20.0704430392

- q-position: [    0.2333333,    0.5000000,    0.0000000 ]
  band:
  - # 1
    frequency:   -3.2826321242
  - # 2
    frequency:    3.1492378496
  - # 3
    frequency:    3.1918247670
  - # 4
    frequency:    3.4784182463
  - # 5
    frequency:    6.7569612990
  - # 6
    frequency:    7.3543726061
  - # 7
    frequency:    7.6395825627
  - # 8
    frequency:    8.4886231132
  - # 9
    frequency:    8.7215712624
  - # 10
    frequency:   10.1400897898
  - # 11
    frequency:   11.6461828489
  - # 12
    frequency:   12.4616412272
  - # 13
    frequency:   12.7012714930
  - # 14
    frequency:   14.4568981487
  - # 15
    frequency:   20.2283179492

- q-position: [    0.2500000,    0.5000000,    0.0000000 ]
  band:
  - # 1
    frequency:   -3.2474970613
  - # 2