2560
3

   1
    0.01000000000000     0.00000000000000     0.00000000000000

 513
    0.01000000000000     0.00000000000000     0.00000000000000

1025
    0.00707106781187     0.00000000000000     0.00707106781187
