nqpoint: 151    
natom:   5      
reciprocal_lattice:
- [   0.25173007,   0.00000000,   0.00000000 ] # a*
- [   0.00000000,   0.25173007,   0.00000000 ] # b*
- [   0.00000000,   0.00000000,   0.25173007 ] # c*
phonon:
- q-position: [    0.0000000,    0.0000000,    0.0000000 ]
  band:
  - # 1
    frequency:   -4.4685300807
  - # 2
    frequency:   -4.4685300807
  - # 3
    frequency:   -4.4685300807
  - # 4
    frequency:    0.0030746162
  - # 5
    frequency:    0.0030746162
  - # 6
    frequency:    0.0030746162
  - # 7
    frequency:    5.0799607728
  - # 8
    frequency:    5.0799607728
  - # 9
    frequency:    5.0799607728
  - # 10
    frequency:    9.2530987181
  - # 11
    frequency:    9.2530987181
  - # 12
    frequency:    9.2530987181
  - # 13
    frequency:   13.8510948579
  - # 14
    frequency:   13.8510948579
  - # 15
    frequency:   13.8510948579

- q-position: [    0.0000000,    0.0166667,    0.0000000 ]
  band:
  - # 1
    frequency:   -4.4652389993
  - # 2
    frequency:   -4.4652389993
  - # 3
    frequency:    0.1932192560
  - # 4
    frequency:    0.1932192560
  - # 5
    frequency:    0.2986816081
  - # 6
    frequency:    4.9322316780
  - # 7
    frequency:    5.0815382464
  - # 8
    frequency:    5.0815382464
  - # 9
    frequency:    9.2546146928
  - # 10
    frequency:    9.2546146928
  - # 11
    frequency:    9.2546764863
  - # 12
    frequency:   12.6457358015
  - # 13
    frequency:   13.8498022939
  - # 14
    frequency:   13.8498022939
  - # 15
    frequency:   17.9495946856

- q-position: [    0.0000000,    0.0333333,    0.0000000 ]
  band:
  - # 1
    frequency:   -4.4554496370
  - # 2
    frequency:   -4.4554496370
  - # 3
    frequency:    0.3859078763
  - # 4
    frequency:    0.3859078763
  - # 5
    frequency:    0.5936578767
  - # 6
    frequency:    4.9719647916
  - # 7
    frequency:    5.0862923961
  - # 8
    frequency:    5.0862923961
  - # 9
    frequency:    9.2591611425
  - # 10
    frequency:    9.2591611425
  - # 11
    frequency:    9.2593874819
  - # 12
    frequency:   12.6738280740
  - # 13
    frequency:   13.8459288861
  - # 14
    frequency:   13.8459288861
  - # 15
    frequency:   17.8707807514

- q-position: [    0.0000000,    0.0500000,    0.0000000 ]
  band:
  - # 1
    frequency:   -4.4394097293
  - # 2
    frequency:   -4.4394097293
  - # 3
    frequency:    0.5775862346
  - # 4
    frequency:    0.5775862346
  - # 5
    frequency:    0.8816141021
  - # 6
    frequency:    5.0363752048
  - # 7
    frequency:    5.0942876227
  - # 8
    frequency:    5.0942876227
  - # 9
    frequency:    9.2667334334
  - # 10
    frequency:    9.2667334334
  - # 11
    frequency:    9.2671652675
  - # 12
    frequency:   12.7193554103
  - # 13
    frequency:   13.8394876179
  - # 14
    frequency:   13.8394876179
  - # 15
    frequency:   17.7437742603

- q-position: [    0.0000000,    0.0666667,    0.0000000 ]
  band:
  - # 1
    frequency:   -4.4175192547
  - # 2
    frequency:   -4.4175192547
  - # 3
    frequency:    0.7676653065
  - # 4
    frequency:    0.7676653065
  - # 5
    frequency:    1.1599467301
  - # 6
    frequency:    5.1056285152
  - # 7
    frequency:    5.1056285152
  - # 8
    frequency:    5.1229014460
  - # 9
    frequency:    9.2773231288
  - # 10
    frequency:    9.2773231288
  - # 11
    frequency:    9.2779007251
  - # 12
    frequency:   12.7804905469
  - # 13
    frequency:   13.8305005649
  - # 14
    frequency:   13.8305005649
  - # 15
    frequency:   17.5749715463

- q-position: [    0.0000000,    0.0833333,    0.0000000 ]
  band:
  - # 1
    frequency:   -4.3903115544
  - # 2
    frequency:   -4.3903115544
  - # 3
    frequency:    0.9554797578
  - # 4
    frequency:    0.9554797578
  - # 5
    frequency:    1.4269242769
  - # 6
    frequency:    5.1204552942
  - # 7
    frequency:    5.1204552942
  - # 8
    frequency:    5.2282708375
  - # 9
    frequency:    9.2909168903
  - # 10
    frequency:    9.2909168903
  - # 11
    frequency:    9.2914444081
  - # 12
    frequency:   12.8548999622
  - # 13
    frequency:   13.8189995549
  - # 14
    frequency:   13.8189995549
  - # 15
    frequency:   17.3730534023

- q-position: [    0.0000000,    0.1000000,    0.0000000 ]
  band:
  - # 1
    frequency:   -4.3584280584
  - # 2
    frequency:   -4.3584280584
  - # 3
    frequency:    1.1402691031
  - # 4
    frequency:    1.1402691031
  - # 5
    frequency:    1.6816845433
  - # 6
    frequency:    5.1389365843
  - # 7
    frequency:    5.1389365843
  - # 8
    frequency:    5.3488002636
  - # 9
    frequency:    9.3074948794
  - # 10
    frequency:    9.3074948794
  - # 11
    frequency:    9.3076097074
  - # 12
    frequency:   12.9399648393
  - # 13
    frequency:   13.8050270980
  - # 14
    frequency:   13.8050270980
  - # 15
    frequency:   17.1486742887

- q-position: [    0.0000000,    0.1166667,    0.0000000 ]
  band:
  - # 1
    frequency:   -4.3225880899
  - # 2
    frequency:   -4.3225880899
  - # 3
    frequency:    1.3211730446
  - # 4
    frequency:    1.3211730446
  - # 5
    frequency:    1.9240879909
  - # 6
    frequency:    5.1612587555
  - # 7
    frequency:    5.1612587555
  - # 8
    frequency:    5.4807367778
  - # 9
    frequency:    9.3261767160
  - # 10
    frequency:    9.3270286101
  - # 11
    frequency:    9.3270286101
  - # 12
    frequency:   13.0330518239
  - # 13
    frequency:   13.7886375974
  - # 14
    frequency:   13.7886375974
  - # 15
    frequency:   16.9140172360

- q-position: [    0.0000000,    0.1333333,    0.0000000 ]
  band:
  - # 1
    frequency:   -4.2835558707
  - # 2
    frequency:   -4.2835558707
  - # 3
    frequency:    1.4972402055
  - # 4
    frequency:    1.4972402055
  - # 5
    frequency:    2.1544852621
  - # 6
    frequency:    5.1876110283
  - # 7
    frequency:    5.1876110283
  - # 8
    frequency:    5.6205853351
  - # 9
    frequency:    9.3468966527
  - # 10
    frequency:    9.3494781892
  - # 11
    frequency:    9.3494781892
  - # 12
    frequency:   13.1318095909
  - # 13
    frequency:   13.7698988447
  - # 14
    frequency:   13.7698988447
  - # 15
    frequency:   16.6821980475

- q-position: [    0.0000000,    0.1500000,    0.0000000 ]
  band:
  - # 1
    frequency:   -4.2421073600
  - # 2
    frequency:   -4.2421073600
  - # 3
    frequency:    1.6674512179
  - # 4
    frequency:    1.6674512179
  - # 5
    frequency:    2.3734667904
  - # 6
    frequency:    5.2181657076
  - # 7
    frequency:    5.2181657076
  - # 8
    frequency:    5.7653718547
  - # 9
    frequency:    9.3694966940
  - # 10
    frequency:    9.3747888871
  - # 11
    frequency:    9.3747888871
  - # 12
    frequency:   13.2344459174
  - # 13
    frequency:   13.7488938099
  - # 14
    frequency:   13.7488938099
  - # 15
    frequency:   16.4665280785

- q-position: [    0.0000000,    0.1666667,    0.0000000 ]
  band:
  - # 1
    frequency:   -4.1989997311
  - # 2
    frequency:   -4.1989997311
  - # 3
    frequency:    1.8307558724
  - # 4
    frequency:    1.8307558724
  - # 5
    frequency:    2.5816500503
  - # 6
    frequency:    5.2530533864
  - # 7
    frequency:    5.2530533864
  - # 8
    frequency:    5.9128069079
  - # 9
    frequency:    9.3936850563
  - # 10
    frequency:    9.4028869896
  - # 11
    frequency:    9.4028869896
  - # 12
    frequency:   13.3399109122
  - # 13
    frequency:   13.7257227276
  - # 14
    frequency:   13.7257227276
  - # 15
    frequency:   16.2796940329

- q-position: [    0.0000000,    0.1833333,    0.0000000 ]
  band:
  - # 1
    frequency:   -4.1549459862
  - # 2
    frequency:   -4.1549459862
  - # 3
    frequency:    1.9861221225
  - # 4
    frequency:    1.9861221225
  - # 5
    frequency:    2.7795357770
  - # 6
    frequency:    5.2923338359
  - # 7
    frequency:    5.2923338359
  - # 8
    frequency:    6.0613383217
  - # 9
    frequency:    9.4191561721
  - # 10
    frequency:    9.4336749080
  - # 11
    frequency:    9.4336749080
  - # 12
    frequency:   13.4478881237
  - # 13
    frequency:   13.7005054805
  - # 14
    frequency:   13.7005054805
  - # 15
    frequency:   16.1329752770

- q-position: [    0.0000000,    0.2000000,    0.0000000 ]
  band:
  - # 1
    frequency:   -4.1105964467
  - # 2
    frequency:   -4.1105964467
  - # 3
    frequency:    2.1325926264
  - # 4
    frequency:    2.1325926264
  - # 5
    frequency:    2.9674401478
  - # 6
    frequency:    5.3359645409
  - # 7
    frequency:    5.3359645409
  - # 8
    frequency:    6.2100995148
  - # 9
    frequency:    9.4455958143
  - # 10
    frequency:    9.4670255652
  - # 11
    frequency:    9.4670255652
  - # 12
    frequency:   13.5585155188
  - # 13
    frequency:   13.6733842658
  - # 14
    frequency:   13.6733842658
  - # 15
    frequency:   16.0356496434

- q-position: [    0.0000000,    0.2166667,    0.0000000 ]
  band:
  - # 1
    frequency:   -4.0665278018
  - # 2
    frequency:   -4.0665278018
  - # 3
    frequency:    2.2693426394
  - # 4
    frequency:    2.2693426394
  - # 5
    frequency:    3.1454920256
  - # 6
    frequency:    5.3837702667
  - # 7
    frequency:    5.3837702667
  - # 8
    frequency:    6.3587705992
  - # 9
    frequency:    9.4726860349
  - # 10
    frequency:    9.5027761427
  - # 11
    frequency:    9.5027761427
  - # 12
    frequency:   13.6445265197
  - # 13
    frequency:   13.6445265197
  - # 14
    frequency:   13.6718791252
  - # 15
    frequency:   15.9946656762

- q-position: [    0.0000000,    0.2333333,    0.0000000 ]
  band:
  - # 1
    frequency:   -4.0232393281
  - # 2
    frequency:   -4.0232393281
  - # 3
    frequency:    2.3957319425
  - # 4
    frequency:    2.3957319425
  - # 5
    frequency:    3.3136743719
  - # 6
    frequency:    5.4354182222
  - # 7
    frequency:    5.4354182222
  - # 8
    frequency:    6.5073738670
  - # 9
    frequency:    9.5001098043
  - # 10
    frequency:    9.5407213539
  - # 11
    frequency:    9.5407213539
  - # 12
    frequency:   13.6141280475
  - # 13
    frequency:   13.6141280475
  - # 14
    frequency:   13.7875409662
  - # 15
    frequency:   16.0144626678

- q-position: [    0.0000000,    0.2500000,    0.0000000 ]
  band:
  - # 1
    frequency:   -3.9811550456
  - # 2
    frequency:   -3.9811550456
  - # 3
    frequency:    2.5113435844
  - # 4
    frequency:    2.5113435844
  - # 5
    frequency:    3.4718860935
  - # 6
    frequency:    5.4904037684
  - # 7
    frequency:    5.4904037684
  - # 8
    frequency:    6.6560291740
  - # 9
    frequency:    9.5275552596
  - # 10
    frequency:    9.5806065157
  - # 11
    frequency:    9.5806065157
  - # 12
    frequency:   13.5824162729
  - # 13
    frequency:   13.5824162729
  - # 14
    frequency:   13.9045036529
  - # 15
    frequency:   16.0966571178

- q-position: [    0.0000000,    0.2666667,    0.0000000 ]
  band:
  - # 1
    frequency:   -3.9406301086
  - # 2
    frequency:   -3.9406301086
  - # 3
    frequency:    2.6160038128
  - # 4
    frequency:    2.6160038128
  - # 5
    frequency:    3.6200035501
  - # 6
    frequency:    5.5480507249
  - # 7
    frequency:    5.5480507249
  - # 8
    frequency:    6.8047008063
  - # 9
    frequency:    9.5547194934
  - # 10
    frequency:    9.6221208146
  - # 11
    frequency:    9.6221208146
  - # 12
    frequency:   13.5496534735
  - # 13
    frequency:   13.5496534735
  - # 14
    frequency:   14.0217907549
  - # 15
    frequency:   16.2394706799

- q-position: [    0.0000000,    0.2833333,    0.0000000 ]
  band:
  - # 1
    frequency:   -3.9019596460
  - # 2
    frequency:   -3.9019596460
  - # 3
    frequency:    2.7097805377
  - # 4
    frequency:    2.7097805377
  - # 5
    frequency:    3.7579275945
  - # 6
    frequency:    5.6075280893
  - # 7
    frequency:    5.6075280893
  - # 8
    frequency:    6.9529743948
  - # 9
    frequency:    9.5813118377
  - # 10
    frequency:    9.6648912882
  - # 11
    frequency:    9.6648912882
  - # 12
    frequency:   13.5161398003
  - # 13
    frequency:   13.5161398003
  - # 14
    frequency:   14.1392621122
  - # 15
    frequency:   16.4372462547

- q-position: [    0.0000000,    0.3000000,    0.0000000 ]
  band:
  - # 1
    frequency:   -3.8653884853
  - # 2
    frequency:   -3.8653884853
  - # 3
    frequency:    2.7929613460
  - # 4
    frequency:    2.7929613460
  - # 5
    frequency:    3.8856095677
  - # 6
    frequency:    5.6678819141
  - # 7
    frequency:    5.6678819141
  - # 8
    frequency:    7.0999055317
  - # 9
    frequency:    9.6070566218
  - # 10
    frequency:    9.7084781721
  - # 11
    frequency:    9.7084781721
  - # 12
    frequency:   13.4822158007
  - # 13
    frequency:   13.4822158007
  - # 14
    frequency:   14.2579806227
  - # 15
    frequency:   16.6806280783

- q-position: [    0.0000000,    0.3166667,    0.0000000 ]
  band:
  - # 1
    frequency:   -3.8311205697
  - # 2
    frequency:   -3.8311205697
  - # 3
    frequency:    2.8660154430
  - # 4
    frequency:    2.8660154430
  - # 5
    frequency:    4.0030559663
  - # 6
    frequency:    5.7280781517
  - # 7
    frequency:    5.7280781517
  - # 8
    frequency:    7.2439753933
  - # 9
    frequency:    9.6316954044
  - # 10
    frequency:    9.7523723676
  - # 11
    frequency:    9.7523723676
  - # 12
    frequency:   13.4482640554
  - # 13
    frequency:   13.4482640554
  - # 14
    frequency:   14.3798317971
  - # 15
    frequency:   16.9575671170

- q-position: [    0.0000000,    0.3333333,    0.0000000 ]
  band:
  - # 1
    frequency:   -3.7993273023
  - # 2
    frequency:   -3.7993273023
  - # 3
    frequency:    2.9295459868
  - # 4
    frequency:    2.9295459868
  - # 5
    frequency:    4.1103158715
  - # 6
    frequency:    5.7870504376
  - # 7
    frequency:    5.7870504376
  - # 8
    frequency:    7.3831700027
  - # 9
    frequency:    9.6549886976
  - # 10
    frequency:    9.7959958582
  - # 11
    frequency:    9.7959958582
  - # 12
    frequency:   13.4147094297
  - # 13
    frequency:   13.4147094297
  - # 14
    frequency:   14.5066891395
  - # 15
    frequency:   17.2547410559

- q-position: [    0.0000000,    0.3500000,    0.0000000 ]
  band:
  - # 1
    frequency:   -3.7701544172
  - # 2
    frequency:   -3.7701544172
  - # 3
    frequency:    2.9842396576
  - # 4
    frequency:    2.9842396576
  - # 5
    frequency:    4.2074579056
  - # 6
    frequency:    5.8437465408
  - # 7
    frequency:    5.8437465408
  - # 8
    frequency:    7.5151712431
  - # 9
    frequency:    9.6767172203
  - # 10
    frequency:    9.8387059219
  - # 11
    frequency:    9.8387059219
  - # 12
    frequency:   13.3820173213
  - # 13
    frequency:   13.3820173213
  - # 14
    frequency:   14.6395782614
  - # 15
    frequency:   17.5588714818

- q-position: [    0.0000000,    0.3666667,    0.0000000 ]
  band:
  - # 1
    frequency:   -3.7437272691
  - # 2
    frequency:   -3.7437272691
  - # 3
    frequency:    3.0308191724
  - # 4
    frequency:    3.0308191724
  - # 5
    frequency:    4.2945445178
  - # 6
    frequency:    5.8971684124
  - # 7
    frequency:    5.8971684124
  - # 8
    frequency:    7.6376175694
  - # 9
    frequency:    9.6966827274
  - # 10
    frequency:    9.8798039378
  - # 11
    frequency:    9.8798039378
  - # 12
    frequency:   13.3506891974
  - # 13
    frequency:   13.3506891974
  - # 14
    frequency:   14.7780908518
  - # 15
    frequency:   17.8576832246

- q-position: [    0.0000000,    0.3833333,    0.0000000 ]
  band:
  - # 1
    frequency:   -3.7201546220
  - # 2
    frequency:   -3.7201546220
  - # 3
    frequency:    3.0700024848
  - # 4
    frequency:    3.0700024848
  - # 5
    frequency:    4.3716106263
  - # 6
    frequency:    5.9464027918
  - # 7
    frequency:    5.9464027918
  - # 8
    frequency:    7.7483719701
  - # 9
    frequency:    9.7147084755
  - # 10
    frequency:    9.9185494294
  - # 11
    frequency:    9.9185494294
  - # 12
    frequency:   13.3212546913
  - # 13
    frequency:   13.3212546913
  - # 14
    frequency:   14.9201015546
  - # 15
    frequency:   18.1404936870

- q-position: [    0.0000000,    0.4000000,    0.0000000 ]
  band:
  - # 1
    frequency:   -3.6995311321
  - # 2
    frequency:   -3.6995311321
  - # 3
    frequency:    3.1024703320
  - # 4
    frequency:    3.1024703320
  - # 5
    frequency:    4.4386512713
  - # 6
    frequency:    5.9906414582
  - # 7
    frequency:    5.9906414582
  - # 8
    frequency:    7.8457333251
  - # 9
    frequency:    9.7306393894
  - # 10
    frequency:    9.9541797158
  - # 11
    frequency:    9.9541797158
  - # 12
    frequency:   13.2942596269
  - # 13
    frequency:   13.2942596269
  - # 14
    frequency:   15.0617679788
  - # 15
    frequency:   18.3985089671

- q-position: [    0.0000000,    0.4166667,    0.0000000 ]
  band:
  - # 1
    frequency:   -3.6819387721
  - # 2
    frequency:   -3.6819387721
  - # 3
    frequency:    3.1288421258
  - # 4
    frequency:    3.1288421258
  - # 5
    frequency:    4.4956198540
  - # 6
    frequency:    6.0291919294
  - # 7
    frequency:    6.0291919294
  - # 8
    frequency:    7.9285465040
  - # 9
    frequency:    9.7443419982
  - # 10
    frequency:    9.9859350926
  - # 11
    frequency:    9.9859350926
  - # 12
    frequency:   13.2702496198
  - # 13
    frequency:   13.2702496198
  - # 14
    frequency:   15.1977845532
  - # 15
    frequency:   18.6249007064

- q-position: [    0.0000000,    0.4333333,    0.0000000 ]
  band:
  - # 1
    frequency:   -3.6674474567
  - # 2
    frequency:   -3.6674474567
  - # 3
    frequency:    3.1496591430
  - # 4
    frequency:    3.1496591430
  - # 5
    frequency:    4.5424358112
  - # 6
    frequency:    6.0614804814
  - # 7
    frequency:    6.0614804814
  - # 8
    frequency:    7.9961984579
  - # 9
    frequency:    9.7557042099
  - # 10
    frequency:   10.0130888392
  - # 11
    frequency:   10.0130888392
  - # 12
    frequency:   13.2497494091
  - # 13
    frequency:   13.2497494091
  - # 14
    frequency:   15.3218552080
  - # 15
    frequency:   18.8147135328

- q-position: [    0.0000000,    0.4500000,    0.0000000 ]
  band:
  - # 1
    frequency:   -3.6561151166
  - # 2
    frequency:   -3.6561151166
  - # 3
    frequency:    3.1653735046
  - # 4
    frequency:    3.1653735046
  - # 5
    frequency:    4.5789988634
  - # 6
    frequency:    6.0870498226
  - # 7
    frequency:    6.0870498226
  - # 8
    frequency:    8.0485189520
  - # 9
    frequency:    9.7646349925
  - # 10
    frequency:   10.0349805516
  - # 11
    frequency:   10.0349805516
  - # 12
    frequency:   13.2332388068
  - # 13
    frequency:   13.2332388068
  - # 14
    frequency:   15.4273336161
  - # 15
    frequency:   18.9646379648

- q-position: [    0.0000000,    0.4666667,    0.0000000 ]
  band:
  - # 1
    frequency:   -3.6479874423
  - # 2
    frequency:   -3.6479874423
  - # 3
    frequency:    3.1763413927
  - # 4
    frequency:    3.1763413927
  - # 5
    frequency:    4.6052063551
  - # 6
    frequency:    6.1055537550
  - # 7
    frequency:    6.1055537550
  - # 8
    frequency:    8.0856244825
  - # 9
    frequency:    9.7710640192
  - # 10
    frequency:   10.0510504291
  - # 11
    frequency:   10.0510504291
  - # 12
    frequency:   13.2211270138
  - # 13
    frequency:   13.2211270138
  - # 14
    frequency:   15.5079586755
  - # 15
    frequency:   19.0726844838

- q-position: [    0.0000000,    0.4833333,    0.0000000 ]
  band:
  - # 1
    frequency:   -3.6430974852
  - # 2
    frequency:   -3.6430974852
  - # 3
    frequency:    3.1828191495
  - # 4
    frequency:    3.1828191495
  - # 5
    frequency:    4.6209703784
  - # 6
    frequency:    6.1167508698
  - # 7
    frequency:    6.1167508698
  - # 8
    frequency:    8.1077488086
  - # 9
    frequency:    9.7749413347
  - # 10
    frequency:   10.0608713886
  - # 11
    frequency:   10.0608713886
  - # 12
    frequency:   13.2137278546
  - # 13
    frequency:   13.2137278546
  - # 14
    frequency:   15.5585935403
  - # 15
    frequency:   19.1378087479

- q-position: [    0.0000000,    0.5000000,    0.0000000 ]
  band:
  - # 1
    frequency:   -3.6414652640
  - # 2
    frequency:   -3.6414652640
  - # 3
    frequency:    3.1849612118
  - # 4
    frequency:    3.1849612118
  - # 5
    frequency:    4.6262319637
  - # 6
    frequency:    6.1204988984
  - # 7
    frequency:    6.1204988984
  - # 8
    frequency:    8.1150970443
  - # 9
    frequency:    9.7762370837
  - # 10
    frequency:   10.0641754908
  - # 11
    frequency:   10.0641754908
  - # 12
    frequency:   13.2112389636
  - # 13
    frequency:   13.2112389636
  - # 14
    frequency:   15.5758639503
  - # 15
    frequency:   19.1595568387

- q-position: [    0.0166667,    0.5000000,    0.0000000 ]
  band:
  - # 1
    frequency:   -3.6388832447
  - # 2
    frequency:   -3.5486121138
  - # 3
    frequency:    3.1850043184
  - # 4
    frequency:    3.1852772065
  - # 5
    frequency:    4.6298270474
  - # 6
    frequency:    6.1296393823
  - # 7
    frequency:    6.1314767131
  - # 8
    frequency:    8.1081921112
  - # 9
    frequency:    9.7218792844
  - # 10
    frequency:   10.0646410732
  - # 11
    frequency:   10.1214555218
  - # 12
    frequency:   13.2071861959
  - # 13
    frequency:   13.2086618957
  - # 14
    frequency:   15.5664813187
  - # 15
    frequency:   19.1604330415

- q-position: [    0.0333333,    0.5000000,    0.0000000 ]
  band:
  - # 1
    frequency:   -3.6311992430
  - # 2
    frequency:   -3.2618660749
  - # 3
    frequency:    3.1851330743
  - # 4
    frequency:    3.1861784572
  - # 5
    frequency:    4.6427578921
  - # 6
    frequency:    6.1569618314
  - # 7
    frequency:    6.1638920263
  - # 8
    frequency:    8.0873738434
  - # 9
    frequency:    9.6151460697
  - # 10
    frequency:   10.0660326357
  - # 11
    frequency:   10.2370002508
  - # 12
    frequency:   13.1948797564
  - # 13
    frequency:   13.2009287067
  - # 14
    frequency:   15.5386454367
  - # 15
    frequency:   19.1637947423

- q-position: [    0.0500000,    0.5000000,    0.0000000 ]
  band:
  - # 1
    frequency:   -3.6185961648
  - # 2
    frequency:   -2.7488428335
  - # 3
    frequency:    3.1853457993
  - # 4
    frequency:    3.1875310080
  - # 5
    frequency:    4.6720640546
  - # 6
    frequency:    6.2021715031
  - # 7
    frequency:    6.2162987444
  - # 8
    frequency:    8.0523581395
  - # 9
    frequency:    9.4991595075
  - # 10
    frequency:   10.0683346844
  - # 11
    frequency:   10.3678062643
  - # 12
    frequency:   13.1739047677
  - # 13
    frequency:   13.1880335096
  - # 14
    frequency:   15.4932948778
  - # 15
    frequency:   19.1717400530

- q-position: [    0.0666667,    0.5000000,    0.0000000 ]
  band:
  - # 1
    frequency:   -3.6013682720
  - # 2
    frequency:   -1.9022029521
  - # 3
    frequency:    3.1856397323
  - # 4
    frequency:    3.1891350254
  - # 5
    frequency:    4.7318068419
  - # 6
    frequency:    6.2647846933
  - # 7
    frequency:    6.2865983681
  - # 8
    frequency:    8.0027600671
  - # 9
    frequency:    9.3854014619
  - # 10
    frequency:   10.0715215955
  - # 11
    frequency:   10.5025349706
  - # 12
    frequency:   13.1436726010
  - # 13
    frequency:   13.1699667227
  - # 14
    frequency:   15.4319949863
  - # 15
    frequency:   19.1874364126

- q-position: [    0.0833333,    0.5000000,    0.0000000 ]
  band:
  - # 1
    frequency:   -3.5799063064
  - # 2
    frequency:    0.8579665446
  - # 3
    frequency:    3.1860110890
  - # 4
    frequency:    3.1907752268
  - # 5
    frequency:    4.8469981157
  - # 6
    frequency:    6.3441399440
  - # 7
    frequency:    6.3723843612
  - # 8
    frequency:    7.9382238807
  - # 9
    frequency:    9.2780228069
  - # 10
    frequency:   10.0755579113
  - # 11
    frequency:   10.6371214980
  - # 12
    frequency:   13.1035859522
  - # 13
    frequency:   13.1467154155
  - # 14
    frequency:   15.3569150910
  - # 15
    frequency:   19.2146573397

- q-position: [    0.1000000,    0.5000000,    0.0000000 ]
  band:
  - # 1
    frequency:   -3.5546785471
  - # 2
    frequency:    2.2080629018
  - # 3
    frequency:    3.1864551381
  - # 4
    frequency:    3.1923730411
  - # 5
    frequency:    5.0550091380
  - # 6
    frequency:    6.4394134753
  - # 7
    frequency:    6.4713074248
  - # 8
    frequency:    7.8585823670
  - # 9
    frequency:    9.1790988201
  - # 10
    frequency:   10.0803987504
  - # 11
    frequency:   10.7694219049
  - # 12
    frequency:   13.0532763546
  - # 13
    frequency:   13.1182637979
  - # 14
    frequency:   15.2707546855
  - # 15
    frequency:   19.2572053599

- q-position: [    0.1166667,    0.5000000,    0.0000000 ]
  band:
  - # 1
    frequency:   -3.5262094221
  - # 2
    frequency:    2.8486899532
  - # 3
    frequency:    3.1869662931
  - # 4
    frequency:    3.1948900635
  - # 5
    frequency:    5.3861859674
  - # 6
    frequency:    6.5496384351
  - # 7
    frequency:    6.5815679575
  - # 8
    frequency:    7.7640003630
  - # 9
    frequency:    9.0897193886
  - # 10
    frequency:   10.0859903246
  - # 11
    frequency:   10.8980508186
  - # 12
    frequency:   12.9928901983
  - # 13
    frequency:   13.0845938571
  - # 14
    frequency:   15.1765955481
  - # 15
    frequency:   19.3183051393

- q-position: [    0.1333333,    0.5000000,    0.0000000 ]
  band:
  - # 1
    frequency:   -3.4950574222
  - # 2
    frequency:    3.1579912844
  - # 3
    frequency:    3.1875382163
  - # 4
    frequency:    3.2293042505
  - # 5
    frequency:    5.8219403402
  - # 6
    frequency:    6.6737273046
  - # 7
    frequency:    6.7031045962
  - # 8
    frequency:    7.6550499366
  - # 9
    frequency:    9.0102920373
  - # 10
    frequency:   10.0922705591
  - # 11
    frequency:   11.0220791548
  - # 12
    frequency:   12.9233650609
  - # 13
    frequency:   13.0456861531
  - # 14
    frequency:   15.0776780986
  - # 15
    frequency:   19.4000719756

- q-position: [    0.1500000,    0.5000000,    0.0000000 ]
  band:
  - # 1
    frequency:   -3.4617939684
  - # 2
    frequency:    3.1813403416
  - # 3
    frequency:    3.1881639305
  - # 4
    frequency:    3.3792956231
  - # 5
    frequency:    6.2960581198
  - # 6
    frequency:    6.8104965311
  - # 7
    frequency:    6.8426493950
  - # 8
    frequency:    7.5326937944
  - # 9
    frequency:    8.9407091650
  - # 10
    frequency:   10.0991698056
  - # 11
    frequency:   11.1409587149
  - # 12
    frequency:   12.8466119845
  - # 13
    frequency:   13.0015207893
  - # 14
    frequency:   14.9771319588
  - # 15
    frequency:   19.5031572672

- q-position: [    0.1666667,    0.5000000,    0.0000000 ]
  band:
  - # 1
    frequency:   -3.4269846148
  - # 2
    frequency:    3.1796724878
  - # 3
    frequency:    3.1888359336
  - # 4
    frequency:    3.4625368394
  - # 5
    frequency:    6.7131090898
  - # 6
    frequency:    6.9586922437
  - # 7
    frequency:    7.0437058230
  - # 8
    frequency:    7.3982082699
  - # 9
    frequency:    8.8805084285
  - # 10
    frequency:   10.1066116398
  - # 11
    frequency:   11.2545118315
  - # 12
    frequency:   12.7655245509
  - # 13
    frequency:   12.9520785850
  - # 14
    frequency:   14.8777152398
  - # 15
    frequency:   19.6266369269

- q-position: [    0.1833333,    0.5000000,    0.0000000 ]
  band:
  - # 1
    frequency:   -3.3911735485
  - # 2
    frequency:    3.1752256649
  - # 3
    frequency:    3.1895463140
  - # 4
    frequency:    3.4992782877
  - # 5
    frequency:    6.9560429917
  - # 6
    frequency:    7.1170157876
  - # 7
    frequency:    7.2529327597
  - # 8
    frequency:    7.3951146374
  - # 9
    frequency:    8.8290212741
  - # 10
    frequency:   10.1145137349
  - # 11
    frequency:   11.3629276141
  - # 12
    frequency:   12.6837829228
  - # 13
    frequency:   12.8973424915
  - # 14
    frequency:   14.7816171156
  - # 15
    frequency:   19.7681494951

- q-position: [    0.2000000,    0.5000000,    0.0000000 ]
  band:
  - # 1
    frequency:   -3.3548718825
  - # 2
    frequency:    3.1693711394
  - # 3
    frequency:    3.1902868625
  - # 4
    frequency:    3.5101032245
  - # 5
    frequency:    7.0987849080
  - # 6
    frequency:    7.1071720294
  - # 7
    frequency:    7.2841478301
  - # 8
    frequency:    7.8018166901
  - # 9
    frequency:    8.7854936350
  - # 10
    frequency:   10.1227887976
  - # 11
    frequency:   11.4667344459
  - # 12
    frequency:   12.6054933864
  - # 13
    frequency:   12.8372993142
  - # 14
    frequency:   14.6903529668
  - # 15
    frequency:   19.9242302189

- q-position: [    0.2166667,    0.5000000,    0.0000000 ]
  band:
  - # 1
    frequency:   -3.3185497853
  - # 2
    frequency:    3.1628270086
  - # 3
    frequency:    3.1910491780
  - # 4
    frequency:    3.5061841380
  - # 5
    frequency:    6.9372769824
  - # 6
    frequency:    7.2373163912
  - # 7
    frequency:    7.4587699151
  - # 8
    frequency:    8.1887533019
  - # 9
    frequency:    8.7492406191
  - # 10
    frequency:   10.1313455564
  - # 11
    frequency:   11.5667304327
  - # 12
    frequency:   12.5347629726
  - # 13
    frequency:   12.7719418371
  - # 14
    frequency:   14.6047489270
  - # 15
    frequency:   20.0907488866

- q-position: [    0.2333333,    0.5000000,    0.0000000 ]
  band:
  - # 1
    frequency:   -3.2826321242
  - # 2
    frequency:    3.1563149413
  - # 3
    frequency:    3.1918247670
  - # 4
    frequency:    3.4937865235
  - # 5
    frequency:    6.7703047595
  - # 6
    frequency:    7.3600322300
  - # 7
    frequency:    7.6395825627
  - # 8
    frequency:    8.5403294195
  - # 9
    frequency:    8.7209366084
  - # 10
    frequency:   10.1400897898
  - # 11
    frequency:   11.6638661684
  - # 12
    frequency:   12.4753215186
  - # 13
    frequency:   12.7012714930
  - # 14
    frequency:   14.5249930706
  - # 15
    frequency:   20.2633537690

- q-position: [    0.2500000,    0.5000000,    0.0000000 ]
  band:
  - # 1
    frequency:   -3.2474970613
  - # 2